Siesta Version  : siesta-4.1--852
Architecture    : unknown
Compiler version: ifort (IFORT) 17.0.4 20170411
Compiler flags  : mpiifort -O1 -xHost -mp1 -fpp -ftz -I/scicomp/easybuild/CentOS/7.3.1611/Hasweell/software/imkl/2017.3.196-iimpi-2017b/mkl/include -I/scratch/scicomp/easybuild/CentOS/7.3.1611/Haswell/software/netCDF-Fortran/4.4.4-intel-2017b/include -I/scratch/scicomp/easybuild/CentOS/7.3.1611/Haswell/software/netCDF/4.4.1.1-intel-2017b/include
PP flags        :  -DFC_HAVE_ABORT -DMPI -DCDF -DNCDF -DNCDF_4 -DGRID_DP -DNCDF_PARALLEL
Libraries       : libncdf.a libfdict.a -L/scratch/scicomp/easybuild/CentOS/7.3.1611/Haswell/sofftware/netCDF-Fortran/4.4.4-intel-2017b/lib -lnetcdff -L/scratch/scicomp/easybuild/CentOS/7.3.1611/Haswell/software/cURL/7.56.0-GCCcore-6.4.0/lib -lcurl -L/scratch/scicomp/easybuild/CentOS/7.3.1611/Haswell/software/netCDF/4.4.1.1-intel-2017b/lib64 -lnetcdf -L/scratch/scicomp/easybuild/CentOS/7.3.1611/Haswell/software/HDF5/1.10.1-intel-2017b/lib -lhdf5hl_fortran -lhdf5_fortran -lhdf5_hl -lhdf5 -L/scratch/scicomp/easybuild/CentOS/7.3.1611/Haswell/software/Szip/2.1.1-GCCcore-6.4.0/lib -lsz -L/scratch/scicomp/easybuild/CentOS/7.3.1611/Haswell/software/zlib/1.2.11-GCCcore-6.4.0/lib -lz /scicomp/easybuild/CentOS/7.3.1611/Haswell/software/imkl/2017.3.196-iimpi-2017b/mkl/lib/intel64/libmkl_scalapack_lp64.a -Wl,--start-group /scicomp/easybuild/CentOS/7.3.1611/Haswell/software/imkl/2017.3.196-iimpi-2017b/mkl/lib/intel64/libmkl_intel_lp64.a /scicomp/easybuild/CentOS/7.3.1611/Haswell/software/imkl/2017.3.196-iimpi-2017b/mkl/lib/intel64/libmkl_sequential.a /scicomp/easybuild/CentOS/7.3.1611/Haswell/software/imkl/2017.3.196-iimpi-2017b/mkl/lib/intel64/libmkl_core.a /scicomp/easybuild/CentOS/7.3.1611/Haswell/software/imkl/2017.3.196-iimpi-2017b/mkl/lib/intel64/libmkl_blacs_intelmpi_lp64.a -Wl,--end-group -lpthread -lm -ldl
PARALLEL version
NetCDF support
NetCDF-4 support
NetCDF-4 MPI-IO support

* Running on 24 nodes in parallel
>> Start of run:  26-MAR-2018  12:23:18

                           ***********************       
                           *  WELCOME TO SIESTA  *       
                           ***********************       

reinit: Reading from standard input
reinit: Dumped input in INPUT_TMP.22630
************************** Dump of input data file ****************************
SystemTitle molecule
SystemLabel molecule
SolutionMethod     diagon
TS.HS.Save         true
MD.TypeOfRun  CG
MD.TypeOfRun  Broyden
MD.Broyden.Cycle.On.Maxit F
MD.NumCGsteps  1000
MD.MaxForceTol 0.002 eV/Ang
Diag.ParallelOverK true
%block kgrid_Monkhorst_Pack
 100    0    0    0.0
  0    1    0    0.0
  0    0    1    0.0
%endblock kgrid_Monkhorst_Pack
MaxSCFIterations      3000
SCFMustConverge       true
DM.Tolerance          1.d-5
DM.UseSaveDM          true
DM.NumberPulay	      7
DM.MixingWeight       0.1
MD.UseSaveXV          true
XC.functional         LDA
XC.authors     	      CA
MeshCutoff            400. Ry
PAO.BasisSize   DZP
PAO.BasisType   split
%block ChemicalSpeciesLabel
    1   1 H.ca
    2   6 C.ca2
%endblock ChemicalSpeciesLabel
%include STRUCT.fdf
SpinPolarized   true
#FixSpin  true
#Spin.Fix true
#Spin.Total 0
#TotalSpin  0
%block DM.InitSpin
26   1.
11  -1.
%endblock DM.InitSpin
WriteMullikenPop 1
WriteHirshfeldPop true
WriteVoronoiPop true
WriteEigenvalues true
WriteWaveFunctions true
************************** End of input data file *****************************

reinit: -----------------------------------------------------------------------
reinit: System Name: 
reinit: -----------------------------------------------------------------------
reinit: System Label: molecule
reinit: -----------------------------------------------------------------------

initatom: Reading input for the pseudopotentials and atomic orbitals ----------
Species number:   1 Atomic number:    1 Label: H.ca
Species number:   2 Atomic number:    6 Label: C.ca2
 
Ground state valence configuration:   1s01
Reading pseudopotential information in formatted form from H.ca.psf

Pseudopotential generated from a relativistic atomic calculation

Valence configuration for pseudopotential generation:
1s( 1.00) rc: 1.31
2p( 0.00) rc: 1.31
3d( 0.00) rc: 0.37
4f( 0.00) rc: 1.31
Ground state valence configuration:   2s02  2p02
Reading pseudopotential information in formatted form from C.ca2.psf

Pseudopotential generated from a relativistic atomic calculation

Valence configuration for pseudopotential generation:
2s( 2.00) rc: 1.54
2p( 2.00) rc: 1.54
3d( 0.00) rc: 1.54
4f( 0.00) rc: 1.54
For H.ca, standard SIESTA heuristics set lmxkb to 2
 (one more than the basis l, including polarization orbitals).
Use PS.lmax or PS.KBprojectors blocks to override.
For C.ca2, standard SIESTA heuristics set lmxkb to 3
 (one more than the basis l, including polarization orbitals).
Use PS.lmax or PS.KBprojectors blocks to override.

<basis_specs>
===============================================================================
H.ca                 Z=   1    Mass=  1.0100        Charge= 0.17977+309
Lmxo=0 Lmxkb= 2    BasisType=split      Semic=F
L=0  Nsemic=0  Cnfigmx=1
          n=1  nzeta=2  polorb=1
            splnorm:   0.15000    
               vcte:    0.0000    
               rinn:    0.0000    
               qcoe:    0.0000    
               qyuk:    0.0000    
               qwid:   0.10000E-01
                rcs:    0.0000      0.0000    
            lambdas:    1.0000      1.0000    
-------------------------------------------------------------------------------
L=0  Nkbl=1  erefs: 0.17977+309
L=1  Nkbl=1  erefs: 0.17977+309
L=2  Nkbl=1  erefs: 0.17977+309
===============================================================================
</basis_specs>

atom: Called for H.ca                  (Z =   1)

read_vps: Pseudopotential generation method:
read_vps: ATM3.3.2  Troullier-Martins                       
Total valence charge:    1.00000

xc_check: Exchange-correlation functional:
xc_check: Ceperley-Alder
V l=0 = -2*Zval/r beyond r=  1.2977
V l=1 = -2*Zval/r beyond r=  1.2815
V l=2 = -2*Zval/r beyond r=  1.1307
All V_l potentials equal beyond r=  1.2977
This should be close to max(r_c) in ps generation
All pots = -2*Zval/r beyond r=  1.2977

VLOCAL1: 99.0% of the norm of Vloc inside     25.776 Ry
VLOCAL1: 99.9% of the norm of Vloc inside     58.745 Ry
atom: Maximum radius for 4*pi*r*r*local-pseudopot. charge    1.52711
atom: Maximum radius for r*vlocal+2*Zval:    1.28155
GHOST: No ghost state for L =  0
GHOST: No ghost state for L =  1
GHOST: No ghost state for L =  2

KBgen: Kleinman-Bylander projectors: 
   l= 0   rc=  1.452513   el= -0.467311   Ekb= -1.940806   kbcos= -0.353010
   l= 1   rc=  1.752576   el=  0.001430   Ekb= -0.484365   kbcos= -0.024070
   l= 2   rc=  1.774652   el=  0.002365   Ekb= -0.503986   kbcos= -0.001615

KBgen: Total number of  Kleinman-Bylander projectors:    9
atom: -------------------------------------------------------------------------

atom: SANKEY-TYPE ORBITALS:
atom: Selected multiple-zeta basis: split     

SPLIT: Orbitals with angular momentum L= 0

SPLIT: Basis orbitals for state 1s

SPLIT: PAO cut-off radius determined from an
SPLIT: energy shift=  0.020000 Ry

   izeta = 1
                 lambda =    1.000000
                     rc =    4.828263
                 energy =   -0.449360
                kinetic =    0.925772
    potential(screened) =   -1.375132
       potential(ionic) =   -1.911259

   izeta = 2
                 rmatch =    3.854947
              splitnorm =    0.150000
                 energy =   -0.336131
                kinetic =    1.498125
    potential(screened) =   -1.834256
       potential(ionic) =   -2.406171

POLgen: Perturbative polarization orbital with L=  1

POLgen: Polarization orbital for state 1s

   izeta = 1
                     rc =    4.828263
                 energy =    0.707058
                kinetic =    1.398648
    potential(screened) =   -0.691590
       potential(ionic) =   -1.171958
atom: Total number of Sankey-type orbitals:  5

atm_pop: Valence configuration (for local Pseudopot. screening):
 1s( 1.00)                                                            
Vna: chval, zval:    1.00000   1.00000

Vna:  Cut-off radius for the neutral-atom potential:   4.828263

atom: _________________________________________________________________________

<basis_specs>
===============================================================================
C.ca2                Z=   6    Mass=  12.010        Charge= 0.17977+309
Lmxo=1 Lmxkb= 3    BasisType=split      Semic=F
L=0  Nsemic=0  Cnfigmx=2
          n=1  nzeta=2  polorb=0
            splnorm:   0.15000    
               vcte:    0.0000    
               rinn:    0.0000    
               qcoe:    0.0000    
               qyuk:    0.0000    
               qwid:   0.10000E-01
                rcs:    0.0000      0.0000    
            lambdas:    1.0000      1.0000    
L=1  Nsemic=0  Cnfigmx=2
          n=1  nzeta=2  polorb=1
            splnorm:   0.15000    
               vcte:    0.0000    
               rinn:    0.0000    
               qcoe:    0.0000    
               qyuk:    0.0000    
               qwid:   0.10000E-01
                rcs:    0.0000      0.0000    
            lambdas:    1.0000      1.0000    
-------------------------------------------------------------------------------
L=0  Nkbl=1  erefs: 0.17977+309
L=1  Nkbl=1  erefs: 0.17977+309
L=2  Nkbl=1  erefs: 0.17977+309
L=3  Nkbl=1  erefs: 0.17977+309
===============================================================================
</basis_specs>

atom: Called for C.ca2                 (Z =   6)

read_vps: Pseudopotential generation method:
read_vps: ATM3.3.2  Troullier-Martins                       
Total valence charge:    4.00000

xc_check: Exchange-correlation functional:
xc_check: Ceperley-Alder
V l=0 = -2*Zval/r beyond r=  1.5227
V l=1 = -2*Zval/r beyond r=  1.5227
V l=2 = -2*Zval/r beyond r=  1.5227
V l=3 = -2*Zval/r beyond r=  1.5038
All V_l potentials equal beyond r=  1.5227
This should be close to max(r_c) in ps generation
All pots = -2*Zval/r beyond r=  1.5227

VLOCAL1: 99.0% of the norm of Vloc inside     18.722 Ry
VLOCAL1: 99.9% of the norm of Vloc inside     42.668 Ry
atom: Maximum radius for 4*pi*r*r*local-pseudopot. charge    1.83678
atom: Maximum radius for r*vlocal+2*Zval:    1.58088
GHOST: No ghost state for L =  0
GHOST: No ghost state for L =  1
GHOST: No ghost state for L =  2
GHOST: No ghost state for L =  3

KBgen: Kleinman-Bylander projectors: 
   l= 0   rc=  1.769164   el= -1.002383   Ekb=  4.944706   kbcos=  0.320005
   l= 1   rc=  1.769164   el= -0.398438   Ekb= -4.111874   kbcos= -0.367023
   l= 2   rc=  2.107589   el=  0.002326   Ekb= -1.050436   kbcos= -0.009341
   l= 3   rc=  2.358593   el=  0.003420   Ekb= -0.444500   kbcos= -0.001214

KBgen: Total number of  Kleinman-Bylander projectors:   16
atom: -------------------------------------------------------------------------

atom: SANKEY-TYPE ORBITALS:
atom: Selected multiple-zeta basis: split     

SPLIT: Orbitals with angular momentum L= 0

SPLIT: Basis orbitals for state 2s

SPLIT: PAO cut-off radius determined from an
SPLIT: energy shift=  0.020000 Ry

   izeta = 1
                 lambda =    1.000000
                     rc =    4.191849
                 energy =   -0.984359
                kinetic =    0.881234
    potential(screened) =   -1.865594
       potential(ionic) =   -5.477335

   izeta = 2
                 rmatch =    3.431921
              splitnorm =    0.150000
                 energy =   -0.853663
                kinetic =    1.298382
    potential(screened) =   -2.152045
       potential(ionic) =   -5.997528

SPLIT: Orbitals with angular momentum L= 1

SPLIT: Basis orbitals for state 2p

SPLIT: PAO cut-off radius determined from an
SPLIT: energy shift=  0.020000 Ry

   izeta = 1
                 lambda =    1.000000
                     rc =    4.870301
                 energy =   -0.378923
                kinetic =    2.540340
    potential(screened) =   -2.919263
       potential(ionic) =   -6.428536

   izeta = 2
                 rmatch =    3.475094
              splitnorm =    0.150000
                 energy =   -0.214881
                kinetic =    3.815219
    potential(screened) =   -4.030100
       potential(ionic) =   -7.921348

POLgen: Perturbative polarization orbital with L=  2

POLgen: Polarization orbital for state 2p

   izeta = 1
                     rc =    4.870301
                 energy =    1.281120
                kinetic =    2.631157
    potential(screened) =   -1.350037
       potential(ionic) =   -4.295491
atom: Total number of Sankey-type orbitals: 13

atm_pop: Valence configuration (for local Pseudopot. screening):
 2s( 2.00)                                                            
 2p( 2.00)                                                            
Vna: chval, zval:    4.00000   4.00000

Vna:  Cut-off radius for the neutral-atom potential:   4.870301

atom: _________________________________________________________________________

prinput: Basis input ----------------------------------------------------------

PAO.BasisType split     

%block ChemicalSpeciesLabel
    1    1 H.ca                    # Species index, atomic number, species label
    2    6 C.ca2                   # Species index, atomic number, species label
%endblock ChemicalSpeciesLabel

%block PAO.Basis                 # Define Basis set
H.ca                  1                    # Species label, number of l-shells
 n=1   0   2 P   1                   # n, l, Nzeta, Polarization, NzetaPol
   4.828      3.855   
   1.000      1.000   
C.ca2                 2                    # Species label, number of l-shells
 n=2   0   2                         # n, l, Nzeta 
   4.192      3.432   
   1.000      1.000   
 n=2   1   2 P   1                   # n, l, Nzeta, Polarization, NzetaPol
   4.870      3.475   
   1.000      1.000   
%endblock PAO.Basis

prinput: ----------------------------------------------------------------------

Dumping basis to NetCDF file H.ca.ion.nc
Dumping basis to NetCDF file C.ca2.ion.nc
coor:   Atomic-coordinates input format  =     Cartesian coordinates
coor:                                          (in Angstroms)

siesta: WARNING: XV file not found

siesta: Atomic coordinates (Bohr) and species
siesta:     22.73471  10.49402  18.89727  1        1
siesta:     21.26068  14.31311  18.89727  2        2
siesta:     27.08712   9.37782  18.89727  1        3
siesta:     23.17027  12.52926  18.89727  2        4
siesta:     25.70701  13.22767  18.89727  2        5
siesta:     21.89064  16.94495  18.89727  2        6
siesta:     24.44138  17.70021  18.89727  2        7
siesta:     23.20884  22.19623  18.89727  2        8
siesta:     22.43752  26.25223  18.89727  1        9
siesta:     31.54998   8.23397  18.89727  1       10
siesta:     27.60932  11.39795  18.89727  2       11
siesta:     30.13229  12.08807  18.89727  2       12
siesta:     26.34858  15.85020  18.89727  2       13
siesta:     28.90439  16.57183  18.89727  2       14
siesta:     25.08672  20.32351  18.89727  2       15
siesta:     27.65535  21.04638  18.89727  2       16
siesta:     23.90895  24.78255  18.89727  2       17
siesta:     26.37675  25.50306  18.89727  2       18
siesta:     32.07662  10.25060  18.89727  2       19
siesta:     34.54419  10.97140  18.89727  2       20
siesta:     30.79665  14.70733  18.89727  2       21
siesta:     33.36537  15.42985  18.89727  2       22
siesta:     29.54776  19.18241  18.89727  2       23
siesta:     32.10355  19.90386  18.89727  2       24
siesta:     28.32061  23.66535  18.89727  2       25
siesta:     30.84372  24.35557  18.89727  2       26
siesta:     26.90419  27.51946  18.89727  1       27
siesta:     36.01602   9.50207  18.89727  1       28
siesta:     35.24380  13.55776  18.89727  2       29
siesta:     34.01044  18.05326  18.89727  2       30
siesta:     36.56125  18.80872  18.89727  2       31
siesta:     32.74598  22.52612  18.89727  2       32
siesta:     35.28272  23.22452  18.89727  2       33
siesta:     31.36624  26.37559  18.89727  1       34
siesta:     37.19198  21.44055  18.89727  2       35
siesta:     35.71841  25.25961  18.89727  1       36

siesta: System type = chain     

initatomlists: Number of atoms, orbitals, and projectors:     36   404   520

siesta: ******************** Simulation parameters ****************************
siesta:
siesta: The following are some of the parameters of the simulation.
siesta: A complete list of the parameters used, including default values,
siesta: can be found in file out.fdf
siesta:
redata: Spin configuration                          = collinear
redata: Number of spin components                   = 2
redata: Time-Reversal Symmetry                      = T
redata: Spin-spiral                                 = F
redata: Long output                                 =   F
redata: Number of Atomic Species                    =        2
redata: Charge density info will appear in .RHO file
redata: Write Mulliken Pop.                         = Atomic and Orbital charges
redata: Mesh Cutoff                                 =   400.0000 Ry
redata: Net charge of the system                    =     0.0000 |e|
redata: Min. number of SCF Iter                     =        0
redata: Max. number of SCF Iter                     =     3000
redata: SCF convergence failure will abort job
redata: SCF mix quantity                            = Hamiltonian
redata: Mix DM or H after convergence               =   F
redata: Recompute H after scf cycle                 =   F
redata: Mix DM in first SCF step                    =   T
redata: Write Pulay info on disk                    =   F
redata: New DM Mixing Weight                        =     0.1000
redata: New DM Occupancy tolerance                  = 0.000000000001
redata: No kicks to SCF
redata: DM Mixing Weight for Kicks                  =     0.5000
redata: Require Harris convergence for SCF          =   F
redata: Harris energy tolerance for SCF             =     0.000100 eV
redata: Require DM convergence for SCF              =   T
redata: DM tolerance for SCF                        =     0.000010
redata: Require EDM convergence for SCF             =   F
redata: EDM tolerance for SCF                       =     0.001000 eV
redata: Require H convergence for SCF               =   T
redata: Hamiltonian tolerance for SCF               =     0.001000 eV
redata: Require (free) Energy convergence for SCF   =   F
redata: (free) Energy tolerance for SCF             =     0.000100 eV
redata: Antiferro initial spin density              =   F
redata: Using Saved Data (generic)                  =   F
redata: Use continuation files for DM               =   T
redata: Neglect nonoverlap interactions             =   F
redata: Method of Calculation                       = Diagonalization
redata: Electronic Temperature                      =   299.9869 K
redata: Fix the spin of the system                  =   F
redata: Dynamics option                             = CG coord. optimization
redata: Variable cell                               =   F
redata: Use continuation files for CG               =   F
redata: Max atomic displ per move                   =     0.1058 Ang
redata: Maximum number of CG moves                  =     1000
redata: Force tolerance                             =     0.0020 eV/Ang
mix.SCF: Pulay mixing                            = Pulay
mix.SCF:    Variant                              = stable
mix.SCF:    History steps                        = 7
mix.SCF:    Linear mixing weight                 =     0.100000
mix.SCF:    Mixing weight                        =     0.100000
mix.SCF:    SVD condition                        = 0.1000E-07
mix.SCF: Spin-component mixing                   all
redata: Save all siesta data in one NC              =   F
redata: ***********************************************************************

%block SCF.Mixers
  Pulay
%endblock SCF.Mixers

%block SCF.Mixer.Pulay
  # Mixing method
  method pulay
  variant stable

  # Mixing options
  weight 0.1000
  weight.linear 0.1000
  history 7
%endblock SCF.Mixer.Pulay
 
DM_history_depth set to one: no extrapolation allowed by default for geometry relaxation
Size of DM history Fstack: 1
Total number of electrons:   120.000000
Total ionic charge:   120.000000

* ProcessorY, Blocksize:    4  17


* Orbital distribution balance (max,min):    17    13

k-point displ. along   1 input, could be:     0.00    0.50
 Kpoints in:           51 . Kpoints trimmed:           51

siesta: k-grid: Number of k-points =    51
siesta: k-grid: Cutoff (effective) =    10.000 Ang
siesta: k-grid: Supercell and displacements
siesta: k-grid:  100   0   0      0.000
siesta: k-grid:    0   1   0      0.000
siesta: k-grid:    0   0   1      0.000
 
diag: Algorithm                                     = D&C
diag: Parallel over k                               =   T
diag: Use parallel 2D distribution                  =   T
diag: Parallel block-size                           = 17
diag: Parallel distribution                         =     4 x     6
diag: Used triangular part                          = Lower
diag: Absolute tolerance                            =  0.100E-15
diag: Orthogonalization factor                      =  0.100E-05
diag: Memory factor                                 =  1.0000

superc: Internal auxiliary supercell:     3 x     1 x     1  =       3
superc: Number of atoms, orbitals, and projectors:    108   1212   1560
 
 
ts: **************************************************************
ts: Save H and S matrices                           =    T
ts: Save DM and EDM matrices                        =    F
ts: Fix Hartree potential                           =    F
ts: Only save the overlap matrix S                  =    F
ts: **************************************************************
 
************************ Begin: TS CHECKS AND WARNINGS ************************
************************ End: TS CHECKS AND WARNINGS **************************


                     ====================================
                        Begin CG opt. move =      0
                     ====================================

superc: Internal auxiliary supercell:     3 x     1 x     1  =       3
superc: Number of atoms, orbitals, and projectors:    108   1212   1560

outcell: Unit cell vectors (Ang):
        8.870000    0.000000    0.000000
        0.000000   50.000000    0.000000
        0.000000    0.000000   20.000000

outcell: Cell vector modules (Ang)   :    8.870000   50.000000   20.000000
outcell: Cell angles (23,13,12) (deg):     90.0000     90.0000     90.0000
outcell: Cell volume (Ang**3)        :   8870.0000
<dSpData1D:S at geom step 0
  <sparsity:sparsity for geom step 0
    nrows_g=404 nrows=17 sparsity=.0486 nnzs=7939, refcount: 7>
  <dData1D:(new from dSpData1D) n=7939, refcount: 1>
refcount: 1>
new_DM -- step:     1
Initializing Density Matrix...
 
Attempting to read DM from file... Failed...
DM filled with atomic data (user-defined):
<dSpData2D:DM initialized from atoms
  <sparsity:sparsity for geom step 0
    nrows_g=404 nrows=17 sparsity=.0486 nnzs=7939, refcount: 8>
  <dData2D:DM n=7939 m=2, refcount: 1>
refcount: 1>

initDM: Initial spin polarization (Qup-Qdown) =    0.000000

No. of atoms with KB's overlaping orbs in proc 0. Max # of overlaps:      18     213
New grid distribution:   1
           1       1:   54    1:   80    1:   21
           2       1:   54    1:   80   22:   42
           3       1:   54    1:   80   43:   63
           4       1:   54    1:   80   64:   84
           5       1:   54    1:   80   85:  105
           6       1:   54    1:   80  106:  125
           7       1:   54   81:  160    1:   21
           8       1:   54   81:  160   22:   42
           9       1:   54   81:  160   43:   63
          10       1:   54   81:  160   64:   84
          11       1:   54   81:  160   85:  105
          12       1:   54   81:  160  106:  125
          13       1:   54  161:  240    1:   21
          14       1:   54  161:  240   22:   42
          15       1:   54  161:  240   43:   63
          16       1:   54  161:  240   64:   84
          17       1:   54  161:  240   85:  105
          18       1:   54  161:  240  106:  125
          19       1:   54  241:  320    1:   21
          20       1:   54  241:  320   22:   42
          21       1:   54  241:  320   43:   63
          22       1:   54  241:  320   64:   84
          23       1:   54  241:  320   85:  105
          24       1:   54  241:  320  106:  125

InitMesh: MESH =   108 x   640 x   250 =    17280000
InitMesh: (bp) =    54 x   320 x   125 =     2160000
InitMesh: Mesh cutoff (required, used) =   400.000   409.734 Ry
ExtMesh (bp) on 0 =   118 x   148 x    89 =     1554296
New grid distribution:   2
           1       1:   54    1:   38    1:   63
           2       1:   54   39:   48    1:   58
           3       1:   54   75:   79    1:   63
           4       1:   54   39:   48   59:   63
           5       1:   54   39:   48   68:  125
           6       1:   54   62:   66    1:   63
           7       1:   54   80:  320    1:   58
           8       1:   54   39:   48   64:   67
           9       1:   54   53:   61    1:   59
          10       1:   54   62:   66   64:  125
          11       1:   54   80:  320   69:  125
          12       1:   54   53:   61   60:   63
          13       1:   54    1:   38   64:  125
          14       1:   54   53:   61   68:  125
          15       1:   54   75:   79   64:  125
          16       1:   54   53:   61   64:   67
          17       1:   54   80:  320   64:   68
          18       1:   54   67:   74    1:   59
          19       1:   54   49:   52    1:   63
          20       1:   54   67:   74   64:   67
          21       1:   54   80:  320   59:   63
          22       1:   54   67:   74   68:  125
          23       1:   54   49:   52   64:  125
          24       1:   54   67:   74   60:   63
New grid distribution:   3
           1       1:   54    1:   26    1:   63
           2       1:   54   48:   62    1:   55
           3       1:   54   41:   47    1:   63
           4       1:   54   48:   62   64:   71
           5       1:   54    1:   26   64:  125
           6       1:   54   48:   62   72:  125
           7       1:   54   84:   91    1:   63
           8       1:   54   48:   62   56:   63
           9       1:   54   92:  320   57:   63
          10       1:   54   70:   83    1:   55
          11       1:   54   63:   69    1:   63
          12       1:   54   27:   40   64:   71
          13       1:   54   92:  320    1:   56
          14       1:   54   27:   40    1:   55
          15       1:   54   41:   47   64:  125
          16       1:   54   27:   40   56:   63
          17       1:   54   91:  320   71:  125
          18       1:   54   70:   83   72:  125
          19       1:   54   84:   90   64:  125
          20       1:   54   70:   83   64:   71
          21       1:   54   27:   40   72:  125
          22       1:   54   91:  320   64:   70
          23       1:   54   63:   69   64:  125
          24       1:   54   70:   83   56:   63
Setting up quadratic distribution...
ExtMesh (bp) on 0 =   118 x   106 x   131 =     1638548
PhiOnMesh: Number of (b)points on node 0 =               129276
PhiOnMesh: nlist on node 0 =               392273

stepf: Fermi-Dirac step function

siesta: Program's energy decomposition (eV):
siesta: Ebs     =     -1337.630553
siesta: Eions   =      7306.681312
siesta: Ena     =      1534.567356
siesta: Ekin    =      3298.135642
siesta: Enl     =      -450.929852
siesta: Eso     =         0.000000
siesta: Eldau   =         0.000000
siesta: DEna    =      -144.819091
siesta: DUscf   =        15.356884
siesta: DUext   =         0.000000
siesta: Enegf   =         0.000000
siesta: Exc     =     -1412.556898
siesta: eta*DQ  =         0.000000
siesta: Emadel  =         0.000000
siesta: Emeta   =         0.000000
siesta: Emolmec =         0.000000
siesta: Ekinion =         0.000000
siesta: Eharris =     -4474.075605
siesta: Etot    =     -4466.927271
siesta: FreeEng =     -4466.927288

        iscf     Eharris(eV)        E_KS(eV)     FreeEng(eV)     dDmax    Ef(eV) dHmax(eV)
   scf:    1    -4474.075605    -4466.927271    -4466.927288  0.967848 -5.479336  5.677082
timer: Routine,Calls,Time,% = IterSCF        1       4.508  57.53
   scf:    2    -4468.947773    -4467.978005    -4467.978026  0.011607 -5.158840  4.555637
   scf:    3    -4470.341859    -4469.744421    -4469.744482  0.049778 -3.696505  1.631716
   scf:    4    -4470.101410    -4469.983282    -4469.983349  0.011096 -3.619790  0.516124
   scf:    5    -4470.050484    -4470.023095    -4470.023188  0.011448 -3.466465  0.359447
   scf:    6    -4470.044618    -4470.035146    -4470.035244  0.002570 -3.524786  0.239488
   scf:    7    -4470.046707    -4470.041678    -4470.041792  0.004361 -3.575322  0.102483
   scf:    8    -4470.046388    -4470.043938    -4470.044063  0.003067 -3.580666  0.091296
   scf:    9    -4470.045499    -4470.044767    -4470.044896  0.001365 -3.566187  0.048381
   scf:   10    -4470.047202    -4470.045816    -4470.045954  0.002847 -3.569341  0.018575
   scf:   11    -4470.046050    -4470.045929    -4470.046068  0.000398 -3.569495  0.015973
   scf:   12    -4470.046936    -4470.046349    -4470.046492  0.001875 -3.569795  0.009314
   scf:   13    -4470.046653    -4470.046481    -4470.046625  0.000874 -3.569771  0.007612
   scf:   14    -4470.046620    -4470.046542    -4470.046686  0.000512 -3.569732  0.006038
   scf:   15    -4470.046638    -4470.046583    -4470.046728  0.000462 -3.569692  0.004152
   scf:   16    -4470.046674    -4470.046615    -4470.046760  0.000669 -3.569623  0.002183
   scf:   17    -4470.046627    -4470.046620    -4470.046765  0.000181 -3.569599  0.001588
   scf:   18    -4470.046629    -4470.046625    -4470.046770  0.000156 -3.569571  0.000615
   scf:   19    -4470.046625    -4470.046625    -4470.046770  0.000043 -3.569568  0.000557
   scf:   20    -4470.046625    -4470.046625    -4470.046770  0.000028 -3.569564  0.000552
   scf:   21    -4470.046625    -4470.046625    -4470.046770  0.000023 -3.569558  0.000465
   scf:   22    -4470.046625    -4470.046625    -4470.046770  0.000010 -3.569566  0.000298
   scf:   23    -4470.046625    -4470.046625    -4470.046770  0.000005 -3.569574  0.000181

SCF Convergence by DM+H criterion
max |DM_out - DM_in|         :     0.0000051627
max |H_out - H_in|      (eV) :     0.0001809284
SCF cycle converged after 23 iterations

Using DM_out to compute the final energy and forces
No. of atoms with KB's overlaping orbs in proc 0. Max # of overlaps:      18     213

siesta: E_KS(eV) =            -4470.0466

siesta: E_KS - E_eggbox =     -4470.0466

siesta: Total spin polarization (Qup-Qdown) =    0.000000

siesta: Atomic forces (eV/Ang):
----------------------------------------
   Tot   -0.005373    0.010953   -0.000000
----------------------------------------
   Max    2.349481
   Res    0.554178    sqrt( Sum f_i^2 / 3N )
----------------------------------------
   Max    2.349481    constrained

Stress-tensor-Voigt (kbar):       -0.24        0.29        0.00       -0.07       -0.00        0.00
(Free)E + p*V (eV/cell)    -4470.1394
Target enthalpy (eV/cell)    -4470.0468
 
mulliken: Atomic and Orbital Populations:

mulliken: Spin UP 

Species: H.ca                
Atom  Qatom  Qorb
               1s      1s      1Ppy    1Ppz    1Ppx    
   1  0.624   0.409   0.158   0.025   0.019   0.013
   3  0.625   0.420   0.150   0.024   0.019   0.012
   9  0.623   0.410   0.156   0.018   0.019   0.020
  10  0.625   0.421   0.148   0.023   0.019   0.013
  27  0.625   0.421   0.148   0.023   0.019   0.013
  28  0.623   0.410   0.156   0.018   0.019   0.020
  34  0.625   0.420   0.150   0.024   0.019   0.012
  36  0.624   0.409   0.158   0.025   0.019   0.013

Species: C.ca2               
Atom  Qatom  Qorb
               2s      2s      2py     2pz     2px     2py     2pz     2px     
               2Pdxy   2Pdyz   2Pdz2   2Pdxz   2Pdx2-y2
   2  1.988   0.255   0.242   0.228   0.391   0.236   0.248   0.074   0.235
              0.022   0.016   0.002   0.015   0.024
   4  1.907   0.181   0.277   0.081   0.400   0.250   0.348   0.070   0.240
              0.017   0.005   0.001   0.016   0.022
   5  1.971   0.232   0.250   0.212   0.369   0.213   0.258   0.090   0.263
              0.024   0.015   0.002   0.018   0.025
   6  2.000   0.257   0.242   0.234   0.396   0.233   0.242   0.074   0.245
              0.024   0.015   0.002   0.015   0.023
   7  2.001   0.245   0.245   0.228   0.383   0.230   0.252   0.084   0.253
              0.024   0.016   0.002   0.016   0.024
   8  1.988   0.258   0.241   0.221   0.396   0.240   0.251   0.073   0.230
              0.022   0.015   0.002   0.014   0.024
  11  1.905   0.182   0.277   0.081   0.404   0.250   0.345   0.067   0.238
              0.017   0.005   0.001   0.016   0.021
  12  1.971   0.234   0.249   0.213   0.371   0.208   0.256   0.088   0.267
              0.025   0.015   0.002   0.018   0.024
  13  1.998   0.246   0.245   0.222   0.385   0.225   0.256   0.083   0.255
              0.024   0.015   0.002   0.016   0.024
  14  2.001   0.244   0.246   0.226   0.382   0.228   0.254   0.084   0.255
              0.024   0.016   0.002   0.016   0.024
  15  2.000   0.244   0.246   0.224   0.383   0.228   0.254   0.084   0.255
              0.023   0.016   0.002   0.016   0.024
  16  1.998   0.247   0.245   0.223   0.386   0.227   0.255   0.083   0.252
              0.024   0.015   0.002   0.016   0.024
  17  1.889   0.172   0.280   0.159   0.390   0.158   0.293   0.074   0.303
              0.024   0.010   0.001   0.010   0.015
  18  1.887   0.174   0.279   0.084   0.391   0.236   0.344   0.073   0.245
              0.018   0.004   0.001   0.016   0.021
  19  1.887   0.174   0.279   0.084   0.391   0.236   0.344   0.073   0.245
              0.018   0.004   0.001   0.016   0.021
  20  1.889   0.172   0.280   0.159   0.390   0.158   0.293   0.074   0.303
              0.024   0.010   0.001   0.010   0.015
  21  1.998   0.247   0.244   0.223   0.386   0.227   0.255   0.083   0.253
              0.024   0.015   0.002   0.016   0.024
  22  2.000   0.244   0.246   0.224   0.383   0.228   0.254   0.084   0.255
              0.023   0.016   0.002   0.016   0.024
  23  2.001   0.244   0.246   0.226   0.382   0.227   0.254   0.084   0.255
              0.024   0.016   0.002   0.016   0.024
  24  1.998   0.246   0.245   0.222   0.385   0.226   0.256   0.083   0.255
              0.024   0.015   0.002   0.016   0.024
  25  1.971   0.234   0.249   0.213   0.371   0.208   0.257   0.088   0.268
              0.025   0.015   0.002   0.018   0.024
  26  1.905   0.182   0.277   0.081   0.404   0.250   0.345   0.067   0.238
              0.017   0.005   0.001   0.016   0.021
  29  1.988   0.258   0.241   0.221   0.396   0.240   0.251   0.073   0.230
              0.022   0.015   0.002   0.014   0.024
  30  2.001   0.245   0.245   0.228   0.383   0.230   0.252   0.084   0.253
              0.024   0.016   0.002   0.016   0.024
  31  2.000   0.257   0.242   0.234   0.396   0.233   0.242   0.074   0.245
              0.024   0.015   0.002   0.015   0.023
  32  1.971   0.231   0.250   0.212   0.369   0.213   0.258   0.090   0.263
              0.024   0.015   0.002   0.018   0.025
  33  1.906   0.181   0.277   0.082   0.400   0.249   0.348   0.070   0.240
              0.017   0.005   0.001   0.016   0.022
  35  1.988   0.255   0.242   0.228   0.391   0.236   0.248   0.074   0.235
              0.022   0.016   0.002   0.015   0.024

mulliken: Qtot =       60.000

mulliken: Spin DOWN 

Species: H.ca                
Atom  Qatom  Qorb
               1s      1s      1Ppy    1Ppz    1Ppx    
   1  0.624   0.409   0.158   0.025   0.019   0.013
   3  0.625   0.420   0.150   0.024   0.019   0.012
   9  0.623   0.410   0.156   0.018   0.019   0.020
  10  0.625   0.421   0.148   0.023   0.019   0.013
  27  0.625   0.421   0.148   0.023   0.019   0.013
  28  0.623   0.410   0.156   0.018   0.019   0.020
  34  0.625   0.420   0.150   0.024   0.019   0.012
  36  0.624   0.409   0.158   0.025   0.019   0.013

Species: C.ca2               
Atom  Qatom  Qorb
               2s      2s      2py     2pz     2px     2py     2pz     2px     
               2Pdxy   2Pdyz   2Pdz2   2Pdxz   2Pdx2-y2
   2  1.988   0.255   0.242   0.228   0.391   0.236   0.248   0.074   0.235
              0.022   0.016   0.002   0.015   0.024
   4  1.907   0.181   0.276   0.081   0.400   0.250   0.348   0.070   0.240
              0.017   0.005   0.001   0.016   0.022
   5  1.971   0.232   0.250   0.212   0.369   0.213   0.258   0.090   0.263
              0.024   0.015   0.002   0.018   0.025
   6  2.000   0.257   0.242   0.234   0.396   0.233   0.242   0.074   0.245
              0.024   0.015   0.002   0.015   0.023
   7  2.001   0.245   0.245   0.228   0.383   0.230   0.252   0.084   0.253
              0.024   0.016   0.002   0.016   0.024
   8  1.988   0.258   0.241   0.221   0.396   0.240   0.251   0.073   0.230
              0.022   0.015   0.002   0.014   0.024
  11  1.905   0.182   0.277   0.081   0.404   0.250   0.345   0.067   0.238
              0.017   0.005   0.001   0.016   0.021
  12  1.971   0.234   0.249   0.213   0.371   0.208   0.256   0.088   0.267
              0.025   0.015   0.002   0.018   0.024
  13  1.998   0.246   0.245   0.222   0.385   0.225   0.256   0.083   0.255
              0.024   0.015   0.002   0.016   0.024
  14  2.001   0.244   0.246   0.226   0.382   0.228   0.254   0.084   0.255
              0.024   0.016   0.002   0.016   0.024
  15  2.000   0.244   0.246   0.224   0.383   0.228   0.254   0.084   0.255
              0.023   0.016   0.002   0.016   0.024
  16  1.998   0.247   0.245   0.223   0.386   0.227   0.255   0.083   0.252
              0.024   0.015   0.002   0.016   0.024
  17  1.889   0.172   0.280   0.159   0.390   0.158   0.293   0.074   0.303
              0.024   0.010   0.001   0.010   0.015
  18  1.887   0.174   0.279   0.084   0.391   0.236   0.344   0.073   0.245
              0.018   0.004   0.001   0.016   0.021
  19  1.887   0.174   0.279   0.084   0.391   0.236   0.344   0.073   0.245
              0.018   0.004   0.001   0.016   0.021
  20  1.889   0.172   0.280   0.159   0.390   0.158   0.293   0.074   0.303
              0.024   0.010   0.001   0.010   0.015
  21  1.998   0.247   0.244   0.223   0.386   0.227   0.255   0.083   0.253
              0.024   0.015   0.002   0.016   0.024
  22  2.000   0.244   0.246   0.224   0.383   0.228   0.254   0.084   0.255
              0.023   0.016   0.002   0.016   0.024
  23  2.001   0.244   0.246   0.226   0.382   0.227   0.254   0.084   0.255
              0.024   0.016   0.002   0.016   0.024
  24  1.998   0.246   0.245   0.222   0.385   0.226   0.256   0.083   0.255
              0.024   0.015   0.002   0.016   0.024
  25  1.971   0.234   0.249   0.213   0.371   0.208   0.256   0.088   0.268
              0.025   0.015   0.002   0.018   0.024
  26  1.905   0.182   0.277   0.081   0.404   0.250   0.345   0.067   0.238
              0.017   0.005   0.001   0.016   0.021
  29  1.988   0.258   0.241   0.221   0.396   0.240   0.251   0.073   0.230
              0.022   0.015   0.002   0.014   0.024
  30  2.001   0.245   0.245   0.228   0.383   0.230   0.252   0.084   0.253
              0.024   0.016   0.002   0.016   0.024
  31  2.000   0.257   0.242   0.234   0.396   0.233   0.242   0.074   0.245
              0.024   0.015   0.002   0.015   0.023
  32  1.971   0.231   0.250   0.212   0.369   0.213   0.258   0.090   0.263
              0.024   0.015   0.002   0.018   0.025
  33  1.907   0.181   0.277   0.082   0.400   0.249   0.348   0.070   0.240
              0.017   0.005   0.001   0.016   0.022
  35  1.988   0.255   0.242   0.228   0.391   0.236   0.248   0.074   0.235
              0.022   0.016   0.002   0.015   0.024

mulliken: Qtot =       60.000

                     ====================================
                        Begin CG opt. move =      1
                     ====================================

superc: Internal auxiliary supercell:     3 x     1 x     1  =       3
superc: Number of atoms, orbitals, and projectors:    108   1212   1560

outcell: Unit cell vectors (Ang):
        8.870000    0.000000    0.000000
        0.000000   50.000000    0.000000
        0.000000    0.000000   20.000000

outcell: Cell vector modules (Ang)   :    8.870000   50.000000   20.000000
outcell: Cell angles (23,13,12) (deg):     90.0000     90.0000     90.0000
outcell: Cell volume (Ang**3)        :   8870.0000
<dSpData1D:S at geom step 1
  <sparsity:sparsity for geom step 1
    nrows_g=404 nrows=17 sparsity=.0494 nnzs=8065, refcount: 7>
  <dData1D:(new from dSpData1D) n=8065, refcount: 1>
refcount: 1>
WARNING: Connected supercells may have changed: [in]/[out]  808/  1212
new_DM -- step:     2
Re-using DM from previous geometries...
Number of DMs in history: 1
 DM extrapolation coefficients: 
1   1.00000
New DM after history re-use:
<dSpData2D:SpM extrapolated using coords
  <sparsity:sparsity for geom step 1
    nrows_g=404 nrows=17 sparsity=.0494 nnzs=8065, refcount: 8>
  <dData2D:(temp array for extrapolation) n=8065 m=2, refcount: 1>
refcount: 1>
WARNING: Connected supercells may have changed: [in]/[out]  808/  1212
WARNING: Connected supercells may have changed: [in]/[out]  808/  1212
No. of atoms with KB's overlaping orbs in proc 0. Max # of overlaps:      19     217
New grid distribution:   1
           1       1:   54    1:   80    1:   21
           2       1:   54    1:   80   22:   42
           3       1:   54    1:   80   43:   63
           4       1:   54    1:   80   64:   84
           5       1:   54    1:   80   85:  105
           6       1:   54    1:   80  106:  125
           7       1:   54   81:  160    1:   21
           8       1:   54   81:  160   22:   42
           9       1:   54   81:  160   43:   63
          10       1:   54   81:  160   64:   84
          11       1:   54   81:  160   85:  105
          12       1:   54   81:  160  106:  125
          13       1:   54  161:  240    1:   21
          14       1:   54  161:  240   22:   42
          15       1:   54  161:  240   43:   63
          16       1:   54  161:  240   64:   84
          17       1:   54  161:  240   85:  105
          18       1:   54  161:  240  106:  125
          19       1:   54  241:  320    1:   21
          20       1:   54  241:  320   22:   42
          21       1:   54  241:  320   43:   63
          22       1:   54  241:  320   64:   84
          23       1:   54  241:  320   85:  105
          24       1:   54  241:  320  106:  125

InitMesh: MESH =   108 x   640 x   250 =    17280000
InitMesh: (bp) =    54 x   320 x   125 =     2160000
InitMesh: Mesh cutoff (required, used) =   400.000   409.734 Ry
ExtMesh (bp) on 0 =   118 x   148 x    89 =     1554296
New grid distribution:   2
           1       1:   54    1:   38    1:   63
           2       1:   54   39:   48    1:   58
           3       1:   54   75:   79    1:   63
           4       1:   54   39:   48   59:   63
           5       1:   54   39:   48   68:  125
           6       1:   54   62:   66    1:   63
           7       1:   54   80:  320    1:   58
           8       1:   54   39:   48   64:   67
           9       1:   54   53:   61    1:   59
          10       1:   54   62:   66   64:  125
          11       1:   54   80:  320   69:  125
          12       1:   54   53:   61   60:   63
          13       1:   54    1:   38   64:  125
          14       1:   54   53:   61   68:  125
          15       1:   54   75:   79   64:  125
          16       1:   54   53:   61   64:   67
          17       1:   54   80:  320   64:   68
          18       1:   54   67:   74    1:   59
          19       1:   54   49:   52    1:   63
          20       1:   54   67:   74   64:   67
          21       1:   54   80:  320   59:   63
          22       1:   54   67:   74   68:  125
          23       1:   54   49:   52   64:  125
          24       1:   54   67:   74   60:   63
New grid distribution:   3
           1       1:   54    1:   26    1:   63
           2       1:   54   48:   62    1:   55
           3       1:   54   41:   47    1:   63
           4       1:   54   48:   62   64:   71
           5       1:   54    1:   26   64:  125
           6       1:   54   48:   62   72:  125
           7       1:   54   84:   91    1:   63
           8       1:   54   48:   62   56:   63
           9       1:   54   92:  320   57:   63
          10       1:   54   70:   83    1:   55
          11       1:   54   63:   69    1:   63
          12       1:   54   27:   40   64:   71
          13       1:   54   92:  320    1:   56
          14       1:   54   27:   40    1:   55
          15       1:   54   41:   47   64:  125
          16       1:   54   27:   40   56:   63
          17       1:   54   91:  320   71:  125
          18       1:   54   70:   83   72:  125
          19       1:   54   84:   90   64:  125
          20       1:   54   70:   83   64:   71
          21       1:   54   27:   40   72:  125
          22       1:   54   91:  320   64:   70
          23       1:   54   63:   69   64:  125
          24       1:   54   70:   83   56:   63
Setting up quadratic distribution...
ExtMesh (bp) on 0 =   118 x   106 x   131 =     1638548
PhiOnMesh: Number of (b)points on node 0 =               129276
PhiOnMesh: nlist on node 0 =               392133

        iscf     Eharris(eV)        E_KS(eV)     FreeEng(eV)     dDmax    Ef(eV) dHmax(eV)
   scf:    1    -4469.547116    -4470.043102    -4470.043467  0.013993 -3.563604  1.456805
   scf:    2    -4463.347805    -4468.146547    -4468.146978  0.021934 -3.635735  4.496332
   scf:    3    -4470.807942    -4470.305003    -4470.305373  0.016211 -3.583911  0.125354
   scf:    4    -4470.312609    -4470.310220    -4470.310590  0.000732 -3.588947  0.033343
   scf:    5    -4470.310613    -4470.310427    -4470.310797  0.000095 -3.589525  0.023532
   scf:    6    -4470.310810    -4470.310650    -4470.311022  0.000137 -3.590455  0.007736
   scf:    7    -4470.310688    -4470.310670    -4470.311042  0.000030 -3.590617  0.004122
   scf:    8    -4470.310688    -4470.310682    -4470.311054  0.000031 -3.590854  0.001752
   scf:    9    -4470.310687    -4470.310685    -4470.311057  0.000022 -3.590994  0.000496
   scf:   10    -4470.310686    -4470.310685    -4470.311057  0.000002 -3.591004  0.000352

SCF Convergence by DM+H criterion
max |DM_out - DM_in|         :     0.0000024397
max |H_out - H_in|      (eV) :     0.0003516428
SCF cycle converged after 10 iterations

Using DM_out to compute the final energy and forces
No. of atoms with KB's overlaping orbs in proc 0. Max # of overlaps:      19     217

siesta: E_KS(eV) =            -4470.3107

siesta: Total spin polarization (Qup-Qdown) =    0.000000

siesta: Atomic forces (eV/Ang):
----------------------------------------
   Tot    0.016271   -0.003446   -0.000000
----------------------------------------
   Max    0.762255
   Res    0.267942    sqrt( Sum f_i^2 / 3N )
----------------------------------------
   Max    0.762255    constrained

Stress-tensor-Voigt (kbar):        0.09        0.61        0.00        0.01        0.00       -0.00
(Free)E + p*V (eV/cell)    -4471.6157
Target enthalpy (eV/cell)    -4470.3111
 
mulliken: Atomic and Orbital Populations:

mulliken: Spin UP 

Species: H.ca                
Atom  Qatom  Qorb
               1s      1s      1Ppy    1Ppz    1Ppx    
   1  0.624   0.408   0.159   0.025   0.019   0.013
   3  0.625   0.419   0.150   0.024   0.019   0.012
   9  0.623   0.411   0.156   0.018   0.019   0.020
  10  0.624   0.420   0.149   0.024   0.019   0.013
  27  0.624   0.420   0.149   0.024   0.019   0.013
  28  0.623   0.410   0.156   0.018   0.019   0.020
  34  0.625   0.419   0.150   0.024   0.019   0.012
  36  0.624   0.408   0.158   0.025   0.019   0.013

Species: C.ca2               
Atom  Qatom  Qorb
               2s      2s      2py     2pz     2px     2py     2pz     2px     
               2Pdxy   2Pdyz   2Pdz2   2Pdxz   2Pdx2-y2
   2  1.988   0.248   0.245   0.226   0.388   0.227   0.246   0.078   0.250
              0.023   0.015   0.002   0.017   0.024
   4  1.906   0.184   0.276   0.085   0.406   0.250   0.344   0.065   0.235
              0.016   0.004   0.001   0.016   0.022
   5  1.972   0.232   0.250   0.213   0.370   0.214   0.258   0.089   0.262
              0.024   0.015   0.002   0.017   0.025
   6  2.001   0.252   0.243   0.231   0.392   0.231   0.246   0.077   0.249
              0.023   0.015   0.002   0.015   0.024
   7  2.001   0.251   0.244   0.232   0.389   0.231   0.248   0.079   0.247
              0.023   0.015   0.002   0.016   0.023
   8  1.988   0.249   0.244   0.219   0.390   0.230   0.251   0.078   0.246
              0.023   0.015   0.002   0.016   0.023
  11  1.905   0.182   0.277   0.081   0.403   0.251   0.345   0.067   0.238
              0.017   0.005   0.001   0.016   0.021
  12  1.971   0.233   0.250   0.212   0.371   0.209   0.257   0.088   0.267
              0.025   0.015   0.002   0.018   0.025
  13  1.998   0.246   0.245   0.222   0.385   0.227   0.256   0.083   0.254
              0.024   0.015   0.002   0.015   0.024
  14  2.000   0.244   0.246   0.226   0.382   0.228   0.254   0.084   0.255
              0.024   0.016   0.002   0.016   0.024
  15  2.000   0.249   0.245   0.229   0.387   0.228   0.249   0.079   0.253
              0.023   0.016   0.002   0.016   0.024
  16  1.999   0.247   0.245   0.224   0.387   0.228   0.255   0.083   0.251
              0.024   0.015   0.002   0.015   0.024
  17  1.889   0.176   0.279   0.161   0.394   0.159   0.290   0.070   0.300
              0.024   0.010   0.001   0.010   0.015
  18  1.888   0.174   0.279   0.084   0.393   0.237   0.344   0.072   0.244
              0.018   0.004   0.001   0.016   0.021
  19  1.888   0.174   0.279   0.084   0.393   0.237   0.344   0.072   0.244
              0.018   0.004   0.001   0.016   0.021
  20  1.889   0.176   0.279   0.161   0.394   0.159   0.290   0.070   0.300
              0.024   0.010   0.001   0.010   0.015
  21  1.999   0.247   0.244   0.224   0.387   0.228   0.255   0.083   0.252
              0.024   0.015   0.002   0.015   0.024
  22  2.000   0.249   0.245   0.229   0.387   0.228   0.249   0.079   0.253
              0.023   0.016   0.002   0.016   0.024
  23  2.000   0.244   0.246   0.226   0.382   0.228   0.254   0.084   0.255
              0.024   0.016   0.002   0.016   0.024
  24  1.998   0.246   0.245   0.222   0.386   0.227   0.256   0.083   0.254
              0.024   0.015   0.002   0.015   0.024
  25  1.971   0.233   0.250   0.212   0.371   0.209   0.257   0.088   0.267
              0.025   0.015   0.002   0.018   0.025
  26  1.905   0.182   0.277   0.081   0.403   0.251   0.345   0.067   0.238
              0.017   0.005   0.001   0.016   0.021
  29  1.988   0.248   0.244   0.219   0.390   0.231   0.251   0.078   0.246
              0.024   0.015   0.002   0.016   0.023
  30  2.001   0.251   0.244   0.232   0.389   0.231   0.249   0.079   0.247
              0.023   0.015   0.002   0.016   0.023
  31  2.000   0.252   0.243   0.231   0.392   0.230   0.246   0.077   0.249
              0.023   0.015   0.002   0.015   0.024
  32  1.972   0.232   0.250   0.213   0.370   0.215   0.258   0.089   0.261
              0.024   0.015   0.002   0.017   0.025
  33  1.906   0.184   0.276   0.085   0.406   0.250   0.344   0.065   0.236
              0.016   0.004   0.001   0.016   0.022
  35  1.988   0.248   0.245   0.226   0.388   0.227   0.246   0.078   0.250
              0.023   0.015   0.002   0.017   0.024

mulliken: Qtot =       60.000

mulliken: Spin DOWN 

Species: H.ca                
Atom  Qatom  Qorb
               1s      1s      1Ppy    1Ppz    1Ppx    
   1  0.624   0.408   0.159   0.025   0.019   0.013
   3  0.625   0.419   0.150   0.024   0.019   0.012
   9  0.623   0.411   0.156   0.018   0.019   0.020
  10  0.624   0.420   0.149   0.024   0.019   0.013
  27  0.624   0.420   0.149   0.024   0.019   0.013
  28  0.623   0.410   0.156   0.018   0.019   0.020
  34  0.625   0.419   0.150   0.024   0.019   0.012
  36  0.624   0.408   0.158   0.025   0.019   0.013

Species: C.ca2               
Atom  Qatom  Qorb
               2s      2s      2py     2pz     2px     2py     2pz     2px     
               2Pdxy   2Pdyz   2Pdz2   2Pdxz   2Pdx2-y2
   2  1.988   0.248   0.245   0.226   0.388   0.227   0.246   0.078   0.250
              0.023   0.015   0.002   0.017   0.024
   4  1.906   0.184   0.276   0.085   0.406   0.250   0.344   0.065   0.235
              0.016   0.004   0.001   0.016   0.022
   5  1.972   0.232   0.250   0.213   0.370   0.214   0.258   0.089   0.262
              0.024   0.015   0.002   0.017   0.025
   6  2.001   0.252   0.243   0.231   0.392   0.231   0.246   0.077   0.249
              0.023   0.015   0.002   0.015   0.024
   7  2.001   0.251   0.244   0.232   0.389   0.231   0.248   0.079   0.247
              0.023   0.015   0.002   0.016   0.023
   8  1.988   0.249   0.244   0.219   0.390   0.230   0.251   0.078   0.246
              0.023   0.015   0.002   0.016   0.023
  11  1.905   0.182   0.277   0.081   0.403   0.251   0.345   0.067   0.238
              0.017   0.005   0.001   0.016   0.021
  12  1.971   0.233   0.250   0.212   0.371   0.209   0.257   0.088   0.267
              0.025   0.015   0.002   0.018   0.025
  13  1.998   0.246   0.245   0.222   0.385   0.227   0.256   0.083   0.254
              0.024   0.015   0.002   0.016   0.024
  14  2.000   0.244   0.246   0.226   0.382   0.228   0.254   0.084   0.255
              0.024   0.016   0.002   0.016   0.024
  15  2.000   0.249   0.245   0.229   0.387   0.228   0.249   0.079   0.253
              0.023   0.016   0.002   0.016   0.024
  16  1.999   0.247   0.245   0.224   0.387   0.228   0.255   0.083   0.251
              0.024   0.015   0.002   0.015   0.024
  17  1.889   0.176   0.279   0.161   0.394   0.159   0.290   0.070   0.300
              0.024   0.010   0.001   0.010   0.015
  18  1.888   0.174   0.279   0.084   0.393   0.237   0.344   0.072   0.244
              0.018   0.004   0.001   0.016   0.021
  19  1.888   0.174   0.279   0.084   0.393   0.237   0.344   0.072   0.244
              0.018   0.004   0.001   0.016   0.021
  20  1.889   0.176   0.279   0.161   0.394   0.159   0.290   0.070   0.300
              0.024   0.010   0.001   0.010   0.015
  21  1.999   0.247   0.244   0.224   0.387   0.228   0.255   0.083   0.252
              0.024   0.015   0.002   0.015   0.024
  22  2.000   0.249   0.245   0.229   0.387   0.228   0.249   0.079   0.253
              0.023   0.016   0.002   0.016   0.024
  23  2.000   0.244   0.246   0.226   0.382   0.228   0.254   0.084   0.255
              0.024   0.016   0.002   0.016   0.024
  24  1.998   0.246   0.245   0.222   0.386   0.227   0.256   0.083   0.254
              0.024   0.015   0.002   0.015   0.024
  25  1.971   0.233   0.250   0.212   0.371   0.209   0.257   0.088   0.267
              0.025   0.015   0.002   0.018   0.025
  26  1.905   0.182   0.277   0.081   0.403   0.251   0.345   0.067   0.238
              0.017   0.005   0.001   0.016   0.021
  29  1.988   0.248   0.244   0.219   0.390   0.231   0.251   0.078   0.246
              0.024   0.015   0.002   0.016   0.023
  30  2.001   0.251   0.244   0.232   0.389   0.231   0.249   0.079   0.247
              0.023   0.015   0.002   0.016   0.023
  31  2.000   0.252   0.243   0.231   0.392   0.230   0.246   0.077   0.249
              0.023   0.015   0.002   0.015   0.024
  32  1.972   0.232   0.250   0.213   0.370   0.215   0.258   0.089   0.261
              0.024   0.015   0.002   0.017   0.025
  33  1.906   0.184   0.276   0.085   0.406   0.250   0.344   0.065   0.236
              0.016   0.004   0.001   0.016   0.022
  35  1.988   0.248   0.245   0.226   0.388   0.227   0.246   0.078   0.250
              0.023   0.015   0.002   0.017   0.024

mulliken: Qtot =       60.000

                     ====================================
                        Begin CG opt. move =      2
                     ====================================

superc: Internal auxiliary supercell:     3 x     1 x     1  =       3
superc: Number of atoms, orbitals, and projectors:    108   1212   1560

outcell: Unit cell vectors (Ang):
        8.870000    0.000000    0.000000
        0.000000   50.000000    0.000000
        0.000000    0.000000   20.000000

outcell: Cell vector modules (Ang)   :    8.870000   50.000000   20.000000
outcell: Cell angles (23,13,12) (deg):     90.0000     90.0000     90.0000
outcell: Cell volume (Ang**3)        :   8870.0000
<dSpData1D:S at geom step 2
  <sparsity:sparsity for geom step 2
    nrows_g=404 nrows=17 sparsity=.0494 nnzs=8065, refcount: 7>
  <dData1D:(new from dSpData1D) n=8065, refcount: 1>
refcount: 1>
new_DM -- step:     3
Re-using DM from previous geometries...
Number of DMs in history: 1
 DM extrapolation coefficients: 
1   1.00000
New DM after history re-use:
<dSpData2D:SpM extrapolated using coords
  <sparsity:sparsity for geom step 2
    nrows_g=404 nrows=17 sparsity=.0494 nnzs=8065, refcount: 8>
  <dData2D:(temp array for extrapolation) n=8065 m=2, refcount: 1>
refcount: 1>
No. of atoms with KB's overlaping orbs in proc 0. Max # of overlaps:      19     217
New grid distribution:   1
           1       1:   54    1:   80    1:   21
           2       1:   54    1:   80   22:   42
           3       1:   54    1:   80   43:   63
           4       1:   54    1:   80   64:   84
           5       1:   54    1:   80   85:  105
           6       1:   54    1:   80  106:  125
           7       1:   54   81:  160    1:   21
           8       1:   54   81:  160   22:   42
           9       1:   54   81:  160   43:   63
          10       1:   54   81:  160   64:   84
          11       1:   54   81:  160   85:  105
          12       1:   54   81:  160  106:  125
          13       1:   54  161:  240    1:   21
          14       1:   54  161:  240   22:   42
          15       1:   54  161:  240   43:   63
          16       1:   54  161:  240   64:   84
          17       1:   54  161:  240   85:  105
          18       1:   54  161:  240  106:  125
          19       1:   54  241:  320    1:   21
          20       1:   54  241:  320   22:   42
          21       1:   54  241:  320   43:   63
          22       1:   54  241:  320   64:   84
          23       1:   54  241:  320   85:  105
          24       1:   54  241:  320  106:  125

InitMesh: MESH =   108 x   640 x   250 =    17280000
InitMesh: (bp) =    54 x   320 x   125 =     2160000
InitMesh: Mesh cutoff (required, used) =   400.000   409.734 Ry
ExtMesh (bp) on 0 =   118 x   148 x    89 =     1554296
New grid distribution:   2
           1       1:   54    1:   38    1:   63
           2       1:   54   39:   48    1:   58
           3       1:   54   75:   79    1:   63
           4       1:   54   39:   48   59:   63
           5       1:   54   39:   48   68:  125
           6       1:   54   62:   66    1:   63
           7       1:   54   80:  320    1:   58
           8       1:   54   39:   48   64:   67
           9       1:   54   53:   61    1:   59
          10       1:   54   62:   66   64:  125
          11       1:   54   80:  320   69:  125
          12       1:   54   53:   61   60:   63
          13       1:   54    1:   38   64:  125
          14       1:   54   53:   61   68:  125
          15       1:   54   75:   79   64:  125
          16       1:   54   53:   61   64:   67
          17       1:   54   80:  320   64:   68
          18       1:   54   67:   74    1:   59
          19       1:   54   49:   52    1:   63
          20       1:   54   67:   74   64:   67
          21       1:   54   80:  320   59:   63
          22       1:   54   67:   74   68:  125
          23       1:   54   49:   52   64:  125
          24       1:   54   67:   74   60:   63
New grid distribution:   3
           1       1:   54    1:   26    1:   63
           2       1:   54   48:   62    1:   55
           3       1:   54   41:   47    1:   63
           4       1:   54   48:   62   64:   71
           5       1:   54    1:   26   64:  125
           6       1:   54   48:   62   72:  125
           7       1:   54   84:   91    1:   63
           8       1:   54   48:   62   56:   63
           9       1:   54   92:  320   57:   63
          10       1:   54   70:   83    1:   55
          11       1:   54   63:   69    1:   63
          12       1:   54   27:   40   64:   71
          13       1:   54   92:  320    1:   56
          14       1:   54   27:   40    1:   55
          15       1:   54   41:   47   64:  125
          16       1:   54   27:   40   56:   63
          17       1:   54   91:  320   71:  125
          18       1:   54   70:   83   72:  125
          19       1:   54   84:   90   64:  125
          20       1:   54   70:   83   64:   71
          21       1:   54   27:   40   72:  125
          22       1:   54   91:  320   64:   70
          23       1:   54   63:   69   64:  125
          24       1:   54   70:   83   56:   63
Setting up quadratic distribution...
ExtMesh (bp) on 0 =   118 x   106 x   131 =     1638548
PhiOnMesh: Number of (b)points on node 0 =               129276
PhiOnMesh: nlist on node 0 =               392133

        iscf     Eharris(eV)        E_KS(eV)     FreeEng(eV)     dDmax    Ef(eV) dHmax(eV)
   scf:    1    -4470.296814    -4470.310781    -4470.311108  0.002551 -3.592174  0.261799
   scf:    2    -4470.092023    -4470.248557    -4470.248881  0.004193 -3.578615  0.833765
   scf:    3    -4470.335339    -4470.319018    -4470.319344  0.003181 -3.588644  0.021649
   scf:    4    -4470.319246    -4470.319179    -4470.319505  0.000123 -3.587823  0.005233
   scf:    5    -4470.319199    -4470.319191    -4470.319517  0.000022 -3.587662  0.002082
   scf:    6    -4470.319194    -4470.319193    -4470.319518  0.000009 -3.587613  0.001117
   scf:    7    -4470.319194    -4470.319194    -4470.319519  0.000008 -3.587566  0.000364

SCF Convergence by DM+H criterion
max |DM_out - DM_in|         :     0.0000084583
max |H_out - H_in|      (eV) :     0.0003643779
SCF cycle converged after 7 iterations

Using DM_out to compute the final energy and forces
No. of atoms with KB's overlaping orbs in proc 0. Max # of overlaps:      19     217

siesta: E_KS(eV) =            -4470.3192

siesta: Total spin polarization (Qup-Qdown) =    0.000000

siesta: Atomic forces (eV/Ang):
----------------------------------------
   Tot    0.015050   -0.006342    0.000000
----------------------------------------
   Max    0.578641
   Res    0.202836    sqrt( Sum f_i^2 / 3N )
----------------------------------------
   Max    0.578641    constrained

Stress-tensor-Voigt (kbar):        0.08        0.58        0.00       -0.00        0.00       -0.00
(Free)E + p*V (eV/cell)    -4471.5406
Target enthalpy (eV/cell)    -4470.3195
 
mulliken: Atomic and Orbital Populations:

mulliken: Spin UP 

Species: H.ca                
Atom  Qatom  Qorb
               1s      1s      1Ppy    1Ppz    1Ppx    
   1  0.624   0.408   0.158   0.025   0.019   0.013
   3  0.625   0.419   0.150   0.024   0.019   0.012
   9  0.623   0.410   0.156   0.018   0.019   0.020
  10  0.624   0.420   0.149   0.024   0.019   0.013
  27  0.624   0.420   0.149   0.024   0.019   0.013
  28  0.623   0.410   0.156   0.018   0.019   0.020
  34  0.625   0.420   0.150   0.024   0.019   0.012
  36  0.624   0.408   0.158   0.025   0.019   0.013

Species: C.ca2               
Atom  Qatom  Qorb
               2s      2s      2py     2pz     2px     2py     2pz     2px     
               2Pdxy   2Pdyz   2Pdz2   2Pdxz   2Pdx2-y2
   2  1.988   0.249   0.245   0.226   0.388   0.229   0.246   0.077   0.247
              0.023   0.015   0.002   0.016   0.024
   4  1.906   0.184   0.276   0.084   0.405   0.250   0.344   0.066   0.236
              0.016   0.004   0.001   0.016   0.022
   5  1.972   0.232   0.250   0.213   0.370   0.214   0.258   0.089   0.262
              0.024   0.015   0.002   0.017   0.025
   6  2.001   0.253   0.243   0.231   0.393   0.231   0.246   0.077   0.248
              0.023   0.015   0.002   0.015   0.023
   7  2.001   0.250   0.244   0.231   0.388   0.231   0.249   0.080   0.248
              0.023   0.016   0.002   0.016   0.024
   8  1.988   0.250   0.244   0.220   0.391   0.232   0.251   0.077   0.244
              0.023   0.015   0.002   0.016   0.023
  11  1.905   0.182   0.277   0.081   0.403   0.251   0.345   0.067   0.238
              0.017   0.005   0.001   0.016   0.021
  12  1.971   0.234   0.250   0.212   0.371   0.209   0.257   0.088   0.267
              0.025   0.015   0.002   0.018   0.025
  13  1.998   0.246   0.245   0.222   0.385   0.227   0.256   0.083   0.254
              0.024   0.015   0.002   0.016   0.024
  14  2.000   0.244   0.246   0.226   0.382   0.228   0.254   0.084   0.255
              0.024   0.016   0.002   0.016   0.024
  15  2.000   0.248   0.245   0.228   0.386   0.228   0.250   0.080   0.253
              0.023   0.016   0.002   0.016   0.024
  16  1.999   0.247   0.245   0.224   0.386   0.228   0.255   0.083   0.252
              0.024   0.015   0.002   0.015   0.024
  17  1.889   0.175   0.279   0.161   0.393   0.159   0.290   0.071   0.300
              0.024   0.010   0.001   0.010   0.015
  18  1.888   0.174   0.279   0.084   0.393   0.237   0.344   0.072   0.244
              0.018   0.004   0.001   0.016   0.021
  19  1.888   0.174   0.279   0.084   0.393   0.237   0.344   0.072   0.244
              0.018   0.004   0.001   0.016   0.021
  20  1.889   0.175   0.279   0.161   0.393   0.159   0.290   0.071   0.300
              0.024   0.010   0.001   0.010   0.015
  21  1.999   0.247   0.244   0.224   0.387   0.228   0.255   0.083   0.252
              0.024   0.015   0.002   0.015   0.024
  22  2.000   0.249   0.245   0.228   0.386   0.228   0.250   0.080   0.253
              0.023   0.016   0.002   0.016   0.024
  23  2.000   0.244   0.246   0.226   0.382   0.228   0.254   0.084   0.255
              0.024   0.016   0.002   0.016   0.024
  24  1.998   0.246   0.245   0.222   0.385   0.227   0.256   0.083   0.254
              0.024   0.015   0.002   0.016   0.024
  25  1.971   0.233   0.250   0.212   0.371   0.208   0.257   0.088   0.267
              0.025   0.015   0.002   0.018   0.025
  26  1.905   0.182   0.277   0.081   0.403   0.251   0.345   0.067   0.238
              0.017   0.005   0.001   0.016   0.021
  29  1.988   0.250   0.244   0.220   0.391   0.232   0.251   0.077   0.244
              0.023   0.015   0.002   0.016   0.023
  30  2.001   0.250   0.244   0.231   0.388   0.231   0.249   0.080   0.248
              0.023   0.016   0.002   0.016   0.024
  31  2.000   0.253   0.243   0.231   0.393   0.231   0.246   0.077   0.248
              0.023   0.015   0.002   0.015   0.023
  32  1.972   0.232   0.250   0.213   0.370   0.215   0.258   0.089   0.262
              0.024   0.015   0.002   0.017   0.025
  33  1.906   0.184   0.277   0.084   0.405   0.250   0.344   0.066   0.236
              0.016   0.004   0.001   0.016   0.022
  35  1.988   0.249   0.245   0.226   0.388   0.228   0.246   0.077   0.248
              0.023   0.015   0.002   0.016   0.024

mulliken: Qtot =       60.000

mulliken: Spin DOWN 

Species: H.ca                
Atom  Qatom  Qorb
               1s      1s      1Ppy    1Ppz    1Ppx    
   1  0.624   0.408   0.158   0.025   0.019   0.013
   3  0.625   0.420   0.150   0.024   0.019   0.012
   9  0.623   0.410   0.156   0.018   0.019   0.020
  10  0.624   0.420   0.149   0.024   0.019   0.013
  27  0.624   0.420   0.149   0.024   0.019   0.013
  28  0.623   0.410   0.156   0.018   0.019   0.020
  34  0.625   0.420   0.150   0.024   0.019   0.012
  36  0.624   0.408   0.158   0.025   0.019   0.013

Species: C.ca2               
Atom  Qatom  Qorb
               2s      2s      2py     2pz     2px     2py     2pz     2px     
               2Pdxy   2Pdyz   2Pdz2   2Pdxz   2Pdx2-y2
   2  1.988   0.249   0.245   0.226   0.388   0.229   0.246   0.077   0.247
              0.023   0.015   0.002   0.016   0.024
   4  1.906   0.184   0.276   0.084   0.405   0.250   0.344   0.066   0.236
              0.016   0.004   0.001   0.016   0.022
   5  1.972   0.232   0.250   0.213   0.370   0.214   0.258   0.089   0.262
              0.024   0.015   0.002   0.017   0.025
   6  2.000   0.253   0.243   0.231   0.393   0.231   0.246   0.077   0.248
              0.023   0.015   0.002   0.015   0.023
   7  2.001   0.250   0.244   0.231   0.388   0.231   0.249   0.080   0.248
              0.023   0.016   0.002   0.016   0.024
   8  1.988   0.250   0.244   0.220   0.391   0.232   0.251   0.077   0.244
              0.023   0.015   0.002   0.016   0.023
  11  1.905   0.182   0.277   0.081   0.403   0.251   0.345   0.067   0.238
              0.017   0.005   0.001   0.016   0.021
  12  1.971   0.234   0.250   0.212   0.371   0.209   0.257   0.088   0.267
              0.025   0.015   0.002   0.018   0.025
  13  1.998   0.246   0.245   0.222   0.385   0.227   0.256   0.083   0.254
              0.024   0.015   0.002   0.016   0.024
  14  2.000   0.244   0.246   0.226   0.382   0.228   0.254   0.084   0.255
              0.024   0.016   0.002   0.016   0.024
  15  2.000   0.248   0.245   0.228   0.386   0.228   0.250   0.080   0.253
              0.023   0.016   0.002   0.016   0.024
  16  1.999   0.247   0.245   0.224   0.386   0.228   0.255   0.083   0.252
              0.024   0.015   0.002   0.015   0.024
  17  1.889   0.175   0.279   0.161   0.393   0.159   0.290   0.071   0.300
              0.024   0.010   0.001   0.010   0.015
  18  1.888   0.174   0.279   0.084   0.393   0.237   0.344   0.072   0.244
              0.018   0.004   0.001   0.016   0.021
  19  1.888   0.174   0.279   0.084   0.393   0.237   0.344   0.072   0.244
              0.018   0.004   0.001   0.016   0.021
  20  1.889   0.175   0.279   0.161   0.393   0.159   0.290   0.071   0.300
              0.024   0.010   0.001   0.010   0.015
  21  1.999   0.247   0.244   0.224   0.386   0.228   0.255   0.083   0.252
              0.024   0.015   0.002   0.015   0.024
  22  2.000   0.249   0.245   0.228   0.386   0.228   0.250   0.080   0.253
              0.023   0.016   0.002   0.016   0.024
  23  2.000   0.244   0.246   0.226   0.382   0.228   0.254   0.084   0.255
              0.024   0.016   0.002   0.016   0.024
  24  1.998   0.246   0.245   0.222   0.385   0.227   0.256   0.083   0.254
              0.024   0.015   0.002   0.016   0.024
  25  1.971   0.233   0.250   0.212   0.371   0.208   0.257   0.088   0.267
              0.025   0.015   0.002   0.018   0.025
  26  1.905   0.182   0.277   0.081   0.403   0.251   0.345   0.067   0.238
              0.017   0.005   0.001   0.016   0.021
  29  1.988   0.250   0.244   0.220   0.391   0.232   0.251   0.077   0.244
              0.023   0.015   0.002   0.016   0.023
  30  2.001   0.250   0.244   0.231   0.388   0.231   0.249   0.080   0.248
              0.023   0.016   0.002   0.016   0.024
  31  2.000   0.253   0.243   0.231   0.393   0.231   0.246   0.077   0.248
              0.023   0.015   0.002   0.015   0.023
  32  1.972   0.232   0.250   0.213   0.370   0.215   0.258   0.089   0.262
              0.024   0.015   0.002   0.017   0.025
  33  1.906   0.184   0.277   0.084   0.405   0.250   0.344   0.066   0.236
              0.016   0.004   0.001   0.016   0.022
  35  1.988   0.249   0.245   0.226   0.388   0.228   0.246   0.077   0.248
              0.023   0.015   0.002   0.016   0.024

mulliken: Qtot =       60.000

cgvc: Finished line minimization    1.  Mean atomic displacement =    0.0278

                     ====================================
                        Begin CG opt. move =      3
                     ====================================

superc: Internal auxiliary supercell:     3 x     1 x     1  =       3
superc: Number of atoms, orbitals, and projectors:    108   1212   1560

outcell: Unit cell vectors (Ang):
        8.870000    0.000000    0.000000
        0.000000   50.000000    0.000000
        0.000000    0.000000   20.000000

outcell: Cell vector modules (Ang)   :    8.870000   50.000000   20.000000
outcell: Cell angles (23,13,12) (deg):     90.0000     90.0000     90.0000
outcell: Cell volume (Ang**3)        :   8870.0000
<dSpData1D:S at geom step 3
  <sparsity:sparsity for geom step 3
    nrows_g=404 nrows=17 sparsity=.0494 nnzs=8065, refcount: 7>
  <dData1D:(new from dSpData1D) n=8065, refcount: 1>
refcount: 1>
new_DM -- step:     4
Re-using DM from previous geometries...
Number of DMs in history: 1
 DM extrapolation coefficients: 
1   1.00000
New DM after history re-use:
<dSpData2D:SpM extrapolated using coords
  <sparsity:sparsity for geom step 3
    nrows_g=404 nrows=17 sparsity=.0494 nnzs=8065, refcount: 8>
  <dData2D:(temp array for extrapolation) n=8065 m=2, refcount: 1>
refcount: 1>
No. of atoms with KB's overlaping orbs in proc 0. Max # of overlaps:      19     217
New grid distribution:   1
           1       1:   54    1:   80    1:   21
           2       1:   54    1:   80   22:   42
           3       1:   54    1:   80   43:   63
           4       1:   54    1:   80   64:   84
           5       1:   54    1:   80   85:  105
           6       1:   54    1:   80  106:  125
           7       1:   54   81:  160    1:   21
           8       1:   54   81:  160   22:   42
           9       1:   54   81:  160   43:   63
          10       1:   54   81:  160   64:   84
          11       1:   54   81:  160   85:  105
          12       1:   54   81:  160  106:  125
          13       1:   54  161:  240    1:   21
          14       1:   54  161:  240   22:   42
          15       1:   54  161:  240   43:   63
          16       1:   54  161:  240   64:   84
          17       1:   54  161:  240   85:  105
          18       1:   54  161:  240  106:  125
          19       1:   54  241:  320    1:   21
          20       1:   54  241:  320   22:   42
          21       1:   54  241:  320   43:   63
          22       1:   54  241:  320   64:   84
          23       1:   54  241:  320   85:  105
          24       1:   54  241:  320  106:  125

InitMesh: MESH =   108 x   640 x   250 =    17280000
InitMesh: (bp) =    54 x   320 x   125 =     2160000
InitMesh: Mesh cutoff (required, used) =   400.000   409.734 Ry
ExtMesh (bp) on 0 =   118 x   148 x    89 =     1554296
New grid distribution:   2
           1       1:   54    1:   38    1:   63
           2       1:   54   39:   48    1:   58
           3       1:   54   75:   79    1:   63
           4       1:   54   39:   48   59:   63
           5       1:   54   39:   48   68:  125
           6       1:   54   62:   66    1:   63
           7       1:   54   80:  320    1:   58
           8       1:   54   39:   48   64:   67
           9       1:   54   53:   61    1:   59
          10       1:   54   62:   66   64:  125
          11       1:   54   80:  320   69:  125
          12       1:   54   53:   61   60:   63
          13       1:   54    1:   38   64:  125
          14       1:   54   53:   61   68:  125
          15       1:   54   75:   79   64:  125
          16       1:   54   53:   61   64:   67
          17       1:   54   80:  320   64:   68
          18       1:   54   67:   74    1:   59
          19       1:   54   49:   52    1:   63
          20       1:   54   67:   74   64:   67
          21       1:   54   80:  320   59:   63
          22       1:   54   67:   74   68:  125
          23       1:   54   49:   52   64:  125
          24       1:   54   67:   74   60:   63
New grid distribution:   3
           1       1:   54    1:   26    1:   63
           2       1:   54   48:   62    1:   55
           3       1:   54   41:   47    1:   63
           4       1:   54   48:   62   64:   71
           5       1:   54    1:   26   64:  125
           6       1:   54   48:   62   72:  125
           7       1:   54   84:   91    1:   63
           8       1:   54   48:   62   56:   63
           9       1:   54   92:  320   57:   63
          10       1:   54   70:   83    1:   55
          11       1:   54   63:   69    1:   63
          12       1:   54   27:   40   64:   71
          13       1:   54   92:  320    1:   56
          14       1:   54   27:   40    1:   55
          15       1:   54   41:   47   64:  125
          16       1:   54   27:   40   56:   63
          17       1:   54   91:  320   71:  125
          18       1:   54   70:   83   72:  125
          19       1:   54   84:   90   64:  125
          20       1:   54   70:   83   64:   71
          21       1:   54   27:   40   72:  125
          22       1:   54   91:  320   64:   70
          23       1:   54   63:   69   64:  125
          24       1:   54   70:   83   56:   63
Setting up quadratic distribution...
ExtMesh (bp) on 0 =   118 x   106 x   131 =     1638548
PhiOnMesh: Number of (b)points on node 0 =               129276
PhiOnMesh: nlist on node 0 =               391433

        iscf     Eharris(eV)        E_KS(eV)     FreeEng(eV)     dDmax    Ef(eV) dHmax(eV)
   scf:    1    -4468.452403    -4469.773707    -4469.773989  0.016928 -3.554151  2.247862
   scf:    2    -4450.365554    -4464.122415    -4464.123610  0.037453 -3.674065  7.220514
   scf:    3    -4471.778001    -4470.348034    -4470.348274  0.028895 -3.592679  0.088933
   scf:    4    -4470.349460    -4470.348833    -4470.349073  0.000293 -3.596879  0.056789
   scf:    5    -4470.349699    -4470.349373    -4470.349612  0.000248 -3.603421  0.028604
   scf:    6    -4470.349512    -4470.349471    -4470.349710  0.000230 -3.607424  0.014732
   scf:    7    -4470.349502    -4470.349494    -4470.349733  0.000111 -3.608339  0.005624
   scf:    8    -4470.349509    -4470.349501    -4470.349740  0.000079 -3.608721  0.001193
   scf:    9    -4470.349505    -4470.349504    -4470.349743  0.000035 -3.608720  0.001083
   scf:   10    -4470.349504    -4470.349504    -4470.349743  0.000012 -3.608743  0.000360
   scf:   11    -4470.349504    -4470.349504    -4470.349743  0.000008 -3.608785  0.000146

SCF Convergence by DM+H criterion
max |DM_out - DM_in|         :     0.0000079137
max |H_out - H_in|      (eV) :     0.0001464553
SCF cycle converged after 11 iterations

Using DM_out to compute the final energy and forces
No. of atoms with KB's overlaping orbs in proc 0. Max # of overlaps:      19     217

siesta: E_KS(eV) =            -4470.3495

siesta: Total spin polarization (Qup-Qdown) =   -0.000000

siesta: Atomic forces (eV/Ang):
----------------------------------------
   Tot    0.011293    0.005604    0.000000
----------------------------------------
   Max    0.926927
   Res    0.257911    sqrt( Sum f_i^2 / 3N )
----------------------------------------
   Max    0.926927    constrained

Stress-tensor-Voigt (kbar):        0.05        0.55        0.00       -0.11        0.00       -0.00
(Free)E + p*V (eV/cell)    -4471.4701
Target enthalpy (eV/cell)    -4470.3497
 
mulliken: Atomic and Orbital Populations:

mulliken: Spin UP 

Species: H.ca                
Atom  Qatom  Qorb
               1s      1s      1Ppy    1Ppz    1Ppx    
   1  0.621   0.409   0.156   0.025   0.018   0.013
   3  0.625   0.420   0.150   0.024   0.019   0.012
   9  0.622   0.410   0.156   0.018   0.019   0.020
  10  0.623   0.422   0.146   0.023   0.018   0.013
  27  0.623   0.422   0.146   0.023   0.018   0.013
[...]
         10.41  10.42  10.51  10.67  10.71  11.04  11.21  11.35  11.39  11.43
         11.53  11.60  11.65  11.72  11.88  11.94  12.08  12.20  12.22  12.36
         12.40  12.51  12.71  12.72  12.74  12.82  12.93  12.96  13.10  13.37
         13.60  13.63  13.73  13.73  14.03  14.19  14.32  14.52  14.56  14.70
         15.08  15.36  15.84  15.97  16.09  16.43  17.16  17.48  17.53  17.62
         17.63  18.06  18.32  18.35  18.43  18.59  18.65  18.73  18.85  19.08
         19.12  19.16  19.29  19.70  19.84  19.86  20.07  20.12  20.17  20.47
         20.70  20.86  20.87  21.05  21.21  21.24  21.27  21.31  21.56  21.76
         21.88  21.90  22.06  22.14  22.26  22.26  22.48  22.72  22.85  22.95
         22.98  23.03  23.06  23.37  23.46  23.53  24.55  24.70  25.01  25.12
         25.16  25.22  25.33  25.80  26.18  26.64  27.33  28.08  28.42  28.50
         29.69  30.11  30.56  30.76  31.06  31.35  31.49  31.84  32.32  32.50
         32.96  33.00  33.13  33.43  33.61  34.34  34.49  34.85  34.89  35.30
         35.72  35.84  36.12  36.32  36.81  37.23  37.49  37.87  38.04  38.39
         39.21  39.50  39.72  40.21  40.67  41.01  41.93  42.59  42.88  43.42
         43.58  43.77  43.79  43.95  44.43  45.21  45.84  45.95  46.26  46.62
         46.73  46.81  47.05  47.05  47.75  47.77  48.24  48.90  48.96  49.17
         49.45  49.56  49.67  49.73  50.03  50.40  51.10  51.54  51.72  51.89
         52.07  52.27  52.41  52.64  53.47  54.03  54.21  54.43  54.52  54.91
         55.21  55.46  55.65  56.09  56.38  56.53  56.62  56.75  56.91  58.25
         58.35  58.46  59.40  59.49  59.64  60.08  60.34  60.46  60.91  61.38
         61.39  61.68  61.96  62.22  62.94  63.12  63.39  64.00  65.32  65.66
         66.96  67.48  67.69  69.76  70.35  71.06  71.81  71.93  72.30  72.53
         72.77  72.97  73.11  73.84  74.17  74.25  74.90  75.59  76.33  76.90
         77.25  77.77  79.32  79.58  79.96  81.28  81.93  82.29  82.52  82.95
         83.76  84.32  85.81  88.17  88.22  89.46  90.14  90.67  93.87  94.82
         95.02  96.46  97.23  99.03 101.33 103.42 104.00 104.54 106.52 106.74
        107.23 108.19 110.00 114.11 114.58 115.29 118.29 119.03 120.54 122.03
        122.81 125.90 128.65 131.44 134.39 136.22 137.13 138.92 140.13 141.04
        142.83 146.17 165.71 166.91
  50  1 -22.18 -22.06 -21.36 -21.07 -20.06 -19.70 -19.53 -19.35 -18.69 -18.62
        -18.37 -17.81 -17.27 -17.15 -15.80 -15.65 -15.13 -14.88 -14.46 -14.30
        -13.71 -13.48 -13.40 -13.19 -13.15 -12.72 -12.10 -11.62 -11.22 -10.87
        -10.78 -10.72 -10.37 -10.37 -10.26 -10.08  -9.91  -9.80  -9.61  -9.56
         -9.45  -9.24  -9.14  -8.79  -8.76  -8.63  -8.19  -8.06  -7.93  -7.57
         -7.52  -7.46  -7.31  -7.20  -6.56  -6.44  -6.31  -5.77  -5.04  -4.78
         -2.30  -2.05  -1.45  -0.97  -0.63  -0.55   0.36   0.49   1.00   1.33
          2.07   2.12   2.58   2.68   3.53   3.82   3.85   4.14   4.37   4.42
          4.81   4.87   5.40   5.60   5.62   5.73   5.85   6.03   6.04   6.30
          6.74   6.78   7.13   7.48   7.77   7.91   8.12   8.49   8.62   8.65
          8.73   8.74   9.28   9.34   9.41   9.57   9.71  10.09  10.16  10.21
         10.41  10.42  10.51  10.67  10.71  11.04  11.22  11.36  11.38  11.43
         11.54  11.59  11.65  11.72  11.87  11.94  12.09  12.20  12.22  12.36
         12.39  12.50  12.71  12.72  12.73  12.81  12.93  12.96  13.10  13.38
         13.61  13.63  13.72  13.74  14.03  14.20  14.31  14.53  14.56  14.70
         15.09  15.35  15.84  15.97  16.10  16.41  17.16  17.49  17.53  17.61
         17.63  18.06  18.32  18.36  18.42  18.59  18.65  18.72  18.85  19.08
         19.12  19.17  19.28  19.70  19.84  19.86  20.09  20.12  20.15  20.47
         20.70  20.86  20.87  21.05  21.22  21.24  21.27  21.31  21.56  21.77
         21.89  21.89  22.05  22.14  22.27  22.27  22.47  22.72  22.85  22.95
         22.98  23.03  23.05  23.38  23.46  23.53  24.55  24.70  25.05  25.13
         25.15  25.21  25.31  25.79  26.18  26.64  27.34  28.07  28.44  28.49
         29.69  30.13  30.54  30.76  31.06  31.36  31.49  31.84  32.32  32.49
         32.96  33.00  33.13  33.46  33.57  34.34  34.49  34.86  34.89  35.30
         35.73  35.84  36.11  36.31  36.79  37.22  37.48  37.87  38.05  38.38
         39.21  39.50  39.73  40.20  40.67  41.01  41.94  42.59  42.88  43.42
         43.58  43.79  43.82  43.92  44.43  45.21  45.84  45.95  46.26  46.63
         46.73  46.82  47.04  47.06  47.74  47.77  48.24  48.89  48.96  49.17
         49.44  49.59  49.69  49.69  50.03  50.39  51.10  51.54  51.73  51.93
         52.07  52.26  52.40  52.61  53.47  54.06  54.19  54.41  54.55  54.89
         55.22  55.45  55.65  56.09  56.39  56.57  56.61  56.81  56.91  58.25
         58.34  58.35  59.41  59.50  59.65  60.07  60.34  60.46  60.90  61.39
         61.40  61.68  61.95  62.22  62.95  63.11  63.39  64.00  65.32  65.65
         66.96  67.51  67.66  69.77  70.34  71.06  71.86  71.93  72.29  72.53
         72.78  72.97  73.08  73.82  74.18  74.23  74.90  75.59  76.34  76.89
         77.25  77.78  79.34  79.56  79.98  81.29  81.97  82.26  82.62  82.83
         83.75  84.31  85.86  88.16  88.24  89.43  90.18  90.60  93.96  94.82
         94.91  96.46  97.22  99.01 101.34 103.53 103.94 104.54 106.50 106.76
        107.44 108.02 109.97 114.26 114.58 115.28 118.25 119.04 120.48 121.96
        122.83 125.84 128.76 131.42 134.59 136.02 137.19 138.84 140.29 140.85
        142.83 146.15 165.92 166.73
  50  2 -22.18 -22.06 -21.36 -21.07 -20.06 -19.70 -19.53 -19.35 -18.69 -18.62
        -18.37 -17.81 -17.27 -17.15 -15.80 -15.65 -15.13 -14.88 -14.46 -14.30
        -13.71 -13.48 -13.40 -13.19 -13.15 -12.72 -12.10 -11.62 -11.22 -10.87
        -10.78 -10.72 -10.37 -10.37 -10.26 -10.08  -9.91  -9.80  -9.61  -9.56
         -9.45  -9.24  -9.14  -8.79  -8.76  -8.63  -8.19  -8.06  -7.93  -7.57
         -7.52  -7.46  -7.31  -7.20  -6.56  -6.44  -6.31  -5.77  -5.04  -4.78
         -2.30  -2.05  -1.45  -0.97  -0.63  -0.55   0.36   0.49   1.00   1.33
          2.07   2.12   2.58   2.68   3.53   3.82   3.85   4.14   4.37   4.42
          4.81   4.87   5.40   5.60   5.62   5.73   5.85   6.03   6.04   6.30
          6.74   6.78   7.13   7.48   7.77   7.91   8.12   8.49   8.62   8.65
          8.73   8.74   9.28   9.34   9.41   9.57   9.71  10.09  10.16  10.21
         10.41  10.42  10.51  10.67  10.71  11.04  11.22  11.36  11.38  11.43
         11.54  11.59  11.65  11.72  11.87  11.94  12.09  12.20  12.22  12.36
         12.39  12.50  12.71  12.72  12.73  12.81  12.93  12.96  13.10  13.38
         13.61  13.63  13.72  13.74  14.03  14.20  14.31  14.53  14.56  14.70
         15.09  15.35  15.84  15.97  16.10  16.41  17.16  17.49  17.53  17.61
         17.63  18.06  18.32  18.36  18.42  18.59  18.65  18.72  18.85  19.08
         19.12  19.17  19.28  19.70  19.84  19.86  20.09  20.12  20.15  20.47
         20.70  20.86  20.87  21.05  21.22  21.24  21.27  21.31  21.56  21.77
         21.89  21.89  22.05  22.14  22.27  22.27  22.47  22.72  22.85  22.95
         22.98  23.03  23.05  23.38  23.46  23.53  24.55  24.70  25.05  25.13
         25.15  25.21  25.31  25.79  26.18  26.64  27.34  28.07  28.44  28.49
         29.69  30.13  30.54  30.76  31.06  31.36  31.49  31.84  32.32  32.49
         32.96  33.00  33.13  33.46  33.57  34.34  34.49  34.86  34.89  35.30
         35.73  35.84  36.11  36.31  36.79  37.22  37.48  37.87  38.05  38.38
         39.21  39.50  39.73  40.20  40.67  41.01  41.94  42.59  42.88  43.42
         43.58  43.79  43.82  43.92  44.43  45.21  45.84  45.95  46.26  46.63
         46.73  46.82  47.04  47.06  47.74  47.77  48.24  48.89  48.96  49.17
         49.44  49.59  49.69  49.69  50.03  50.39  51.10  51.54  51.73  51.93
         52.07  52.26  52.40  52.61  53.47  54.06  54.19  54.41  54.55  54.89
         55.22  55.45  55.65  56.09  56.39  56.57  56.61  56.81  56.91  58.25
         58.34  58.35  59.41  59.50  59.65  60.07  60.34  60.46  60.90  61.39
         61.40  61.68  61.95  62.22  62.95  63.11  63.39  64.00  65.32  65.65
         66.96  67.51  67.66  69.77  70.34  71.06  71.86  71.93  72.29  72.53
         72.78  72.97  73.08  73.82  74.18  74.23  74.90  75.59  76.34  76.89
         77.25  77.78  79.34  79.56  79.98  81.29  81.97  82.26  82.62  82.83
         83.75  84.31  85.86  88.16  88.24  89.43  90.18  90.60  93.96  94.82
         94.91  96.46  97.22  99.01 101.34 103.53 103.94 104.54 106.50 106.76
        107.44 108.02 109.97 114.26 114.58 115.28 118.25 119.04 120.48 121.96
        122.83 125.84 128.76 131.42 134.59 136.02 137.19 138.84 140.29 140.85
        142.83 146.15 165.92 166.73
  51  1 -22.18 -22.06 -21.36 -21.07 -20.05 -19.69 -19.53 -19.35 -18.67 -18.64
        -18.37 -17.81 -17.26 -17.15 -15.80 -15.65 -15.13 -14.88 -14.46 -14.31
        -13.71 -13.48 -13.40 -13.19 -13.15 -12.72 -12.10 -11.62 -11.22 -10.87
        -10.76 -10.74 -10.37 -10.37 -10.26 -10.08  -9.91  -9.79  -9.61  -9.56
         -9.45  -9.24  -9.14  -8.78  -8.77  -8.63  -8.19  -8.06  -7.93  -7.57
         -7.51  -7.47  -7.30  -7.22  -6.56  -6.43  -6.32  -5.77  -5.04  -4.78
         -2.29  -2.05  -1.45  -0.97  -0.60  -0.59   0.39   0.46   1.00   1.33
          2.07   2.12   2.58   2.68   3.53   3.82   3.85   4.14   4.37   4.41
          4.81   4.87   5.40   5.60   5.62   5.72   5.86   6.03   6.03   6.30
          6.74   6.77   7.13   7.48   7.77   7.91   8.12   8.49   8.63   8.63
          8.73   8.74   9.28   9.35   9.41   9.56   9.71  10.12  10.13  10.21
         10.41  10.42  10.51  10.67  10.71  11.04  11.23  11.36  11.37  11.43
         11.55  11.59  11.65  11.72  11.87  11.94  12.09  12.20  12.22  12.37
         12.39  12.50  12.72  12.72  12.73  12.80  12.94  12.96  13.10  13.38
         13.61  13.63  13.72  13.74  14.03  14.20  14.30  14.53  14.55  14.70
         15.09  15.34  15.84  15.97  16.11  16.41  17.16  17.49  17.53  17.61
         17.63  18.06  18.32  18.36  18.42  18.59  18.65  18.72  18.85  19.08
         19.12  19.17  19.28  19.70  19.84  19.86  20.09  20.12  20.14  20.47
         20.70  20.86  20.87  21.05  21.23  21.24  21.26  21.31  21.56  21.78
         21.88  21.90  22.05  22.14  22.27  22.27  22.46  22.72  22.85  22.95
         22.98  23.03  23.05  23.38  23.46  23.53  24.55  24.70  25.07  25.14
         25.14  25.20  25.31  25.79  26.18  26.64  27.34  28.07  28.46  28.48
         29.69  30.13  30.54  30.76  31.06  31.37  31.49  31.84  32.32  32.49
         32.96  33.00  33.13  33.48  33.55  34.34  34.49  34.86  34.89  35.30
         35.74  35.84  36.11  36.31  36.79  37.22  37.48  37.87  38.05  38.38
         39.21  39.50  39.73  40.19  40.67  41.01  41.94  42.59  42.88  43.43
         43.57  43.79  43.85  43.90  44.43  45.21  45.84  45.95  46.25  46.63
         46.73  46.82  47.03  47.06  47.74  47.77  48.25  48.89  48.96  49.17
         49.44  49.61  49.66  49.69  50.03  50.39  51.10  51.54  51.73  51.95
         52.07  52.25  52.40  52.60  53.47  54.07  54.18  54.40  54.56  54.88
         55.23  55.45  55.65  56.09  56.39  56.58  56.61  56.84  56.91  58.25
         58.32  58.34  59.42  59.50  59.65  60.07  60.34  60.46  60.90  61.40
         61.40  61.68  61.94  62.22  62.95  63.11  63.39  64.00  65.33  65.65
         66.96  67.52  67.65  69.77  70.34  71.06  71.87  71.94  72.29  72.54
         72.78  72.97  73.07  73.81  74.19  74.22  74.90  75.59  76.35  76.89
         77.25  77.78  79.35  79.55  79.99  81.29  81.98  82.24  82.70  82.74
         83.75  84.31  85.88  88.16  88.25  89.43  90.20  90.58  94.00  94.83
         94.86  96.46  97.22  99.00 101.34 103.58 103.91 104.54 106.50 106.77
        107.56 107.91 109.96 114.31 114.58 115.28 118.22 119.05 120.46 121.94
        122.84 125.81 128.80 131.42 134.67 135.93 137.21 138.82 140.38 140.76
        142.83 146.14 166.01 166.64
  51  2 -22.18 -22.06 -21.36 -21.07 -20.05 -19.69 -19.53 -19.35 -18.67 -18.64
        -18.37 -17.81 -17.26 -17.15 -15.80 -15.65 -15.13 -14.88 -14.46 -14.31
        -13.71 -13.48 -13.40 -13.19 -13.15 -12.72 -12.10 -11.62 -11.22 -10.87
        -10.76 -10.74 -10.37 -10.37 -10.26 -10.08  -9.91  -9.79  -9.61  -9.56
         -9.45  -9.24  -9.14  -8.78  -8.77  -8.63  -8.19  -8.06  -7.93  -7.57
         -7.51  -7.47  -7.30  -7.22  -6.56  -6.43  -6.32  -5.77  -5.04  -4.78
         -2.29  -2.05  -1.45  -0.97  -0.60  -0.59   0.39   0.46   1.00   1.33
          2.07   2.12   2.58   2.68   3.53   3.82   3.85   4.14   4.37   4.41
          4.81   4.87   5.40   5.60   5.62   5.72   5.86   6.03   6.03   6.30
          6.74   6.77   7.13   7.48   7.77   7.91   8.12   8.49   8.63   8.63
          8.73   8.74   9.28   9.35   9.41   9.56   9.71  10.12  10.13  10.21
         10.41  10.42  10.51  10.67  10.71  11.04  11.23  11.36  11.37  11.43
         11.55  11.59  11.65  11.72  11.87  11.94  12.09  12.20  12.22  12.37
         12.39  12.50  12.72  12.72  12.73  12.80  12.94  12.96  13.10  13.38
         13.61  13.63  13.72  13.74  14.03  14.20  14.30  14.53  14.55  14.70
         15.09  15.34  15.84  15.97  16.11  16.41  17.16  17.49  17.53  17.61
         17.63  18.06  18.32  18.36  18.42  18.59  18.65  18.72  18.85  19.08
         19.12  19.17  19.28  19.70  19.84  19.86  20.09  20.12  20.14  20.47
         20.70  20.86  20.87  21.05  21.23  21.24  21.26  21.31  21.56  21.78
         21.88  21.90  22.05  22.14  22.27  22.27  22.46  22.72  22.85  22.95
         22.98  23.03  23.05  23.38  23.46  23.53  24.55  24.70  25.07  25.14
         25.14  25.20  25.31  25.79  26.18  26.64  27.34  28.07  28.46  28.48
         29.69  30.13  30.54  30.76  31.06  31.37  31.49  31.84  32.32  32.49
         32.96  33.00  33.13  33.48  33.55  34.34  34.49  34.86  34.89  35.30
         35.74  35.84  36.11  36.31  36.79  37.22  37.48  37.87  38.05  38.38
         39.21  39.50  39.73  40.19  40.67  41.01  41.94  42.59  42.88  43.43
         43.57  43.79  43.85  43.90  44.43  45.21  45.84  45.95  46.25  46.63
         46.73  46.82  47.03  47.06  47.74  47.77  48.25  48.89  48.96  49.17
         49.44  49.61  49.66  49.69  50.03  50.39  51.10  51.54  51.73  51.95
         52.07  52.25  52.40  52.60  53.47  54.07  54.18  54.40  54.56  54.88
         55.23  55.45  55.65  56.09  56.39  56.58  56.61  56.84  56.91  58.25
         58.32  58.34  59.42  59.50  59.65  60.07  60.34  60.46  60.90  61.40
         61.40  61.68  61.94  62.22  62.95  63.11  63.39  64.00  65.33  65.65
         66.96  67.52  67.65  69.77  70.34  71.06  71.87  71.94  72.29  72.54
         72.78  72.97  73.07  73.81  74.19  74.22  74.90  75.59  76.35  76.89
         77.25  77.78  79.35  79.55  79.99  81.29  81.98  82.24  82.70  82.74
         83.75  84.31  85.88  88.16  88.25  89.43  90.20  90.58  94.00  94.83
         94.86  96.46  97.22  99.00 101.34 103.58 103.91 104.54 106.50 106.77
        107.56 107.91 109.96 114.31 114.58 115.28 118.22 119.05 120.46 121.94
        122.84 125.81 128.80 131.42 134.67 135.93 137.21 138.82 140.38 140.76
        142.83 146.14 166.01 166.64
siesta: Fermi energy =      -3.594571 eV

siesta: Program's energy decomposition (eV):
siesta: Ebs     =     -1479.831930
siesta: Eions   =      7306.681312
siesta: Ena     =      1534.175227
siesta: Ekin    =      3205.330223
siesta: Enl     =      -428.840002
siesta: Eso     =         0.000000
siesta: Eldau   =         0.000000
siesta: DEna    =       -87.578752
siesta: DUscf   =         8.856648
siesta: DUext   =         0.000000
siesta: Enegf   =         0.000000
siesta: Exc     =     -1395.663013
siesta: eta*DQ  =         0.000000
siesta: Emadel  =         0.000000
siesta: Emeta   =         0.000000
siesta: Emolmec =         0.000000
siesta: Ekinion =         0.000000
siesta: Eharris =     -4470.400979
siesta: Etot    =     -4470.400979
siesta: FreeEng =     -4470.401270

siesta: Final energy (eV):
siesta:  Band Struct. =   -1479.831930
siesta:       Kinetic =    3205.330223
siesta:       Hartree =   37172.920629
siesta:       Eldau   =       0.000000
siesta:       Eso     =       0.000000
siesta:    Ext. field =       0.000000
siesta:       Enegf   =       0.000000
siesta:   Exch.-corr. =   -1395.663013
siesta:  Ion-electron =  -77206.379583
siesta:       Ion-ion =   33753.390764
siesta:       Ekinion =       0.000000
siesta:         Total =   -4470.400979
siesta:         Fermi =      -3.594571

siesta: Stress tensor (static) (eV/Ang**3):
siesta:     0.000111    0.000002   -0.000000
siesta:     0.000002    0.000000   -0.000000
siesta:    -0.000000   -0.000000    0.000002

siesta: Cell volume =       8870.000000 Ang**3

siesta: Pressure (static):
siesta:                Solid            Molecule  Units
siesta:          -0.00000041         -0.00000041  Ry/Bohr**3
siesta:          -0.00003782         -0.00003798  eV/Ang**3
siesta:          -0.06058705         -0.06085380  kBar
(Free)E+ p_basis*V_orbitals  =       -4460.252746
(Free)Eharris+ p_basis*V_orbitals  =       -4460.252746

siesta: Total spin polarization (Qup-Qdown) =   -0.000000

siesta: Electric dipole (a.u.)  =   -0.000000    0.000100   -0.000000
siesta: Electric dipole (Debye) =   -0.000000    0.000253   -0.000000

Hirshfeld Net Atomic Populations:
Atom #    Qatom  Species
     1    0.026  H.ca                
     2    0.004  C.ca2               
     3    0.029  H.ca                
     4   -0.038  C.ca2               
     5    0.005  C.ca2               
     6   -0.000  C.ca2               
     7    0.000  C.ca2               
     8    0.005  C.ca2               
     9    0.030  H.ca                
    10    0.033  H.ca                
    11   -0.036  C.ca2               
    12    0.005  C.ca2               
    13    0.002  C.ca2               
    14    0.000  C.ca2               
    15    0.001  C.ca2               
    16    0.002  C.ca2               
    17   -0.034  C.ca2               
    18   -0.033  C.ca2               
    19   -0.033  C.ca2               
    20   -0.034  C.ca2               
    21    0.002  C.ca2               
    22    0.001  C.ca2               
    23    0.000  C.ca2               
    24    0.002  C.ca2               
    25    0.005  C.ca2               
    26   -0.036  C.ca2               
    27    0.033  H.ca                
    28    0.030  H.ca                
    29    0.005  C.ca2               
    30    0.000  C.ca2               
    31   -0.000  C.ca2               
    32    0.005  C.ca2               
    33   -0.038  C.ca2               
    34    0.029  H.ca                
    35    0.004  C.ca2               
    36    0.026  H.ca                

Voronoi Net Atomic Populations:
Atom #    Qatom  Species
     1    0.005  H.ca                
     2    0.002  C.ca2               
     3    0.005  H.ca                
     4   -0.014  C.ca2               
     5    0.005  C.ca2               
     6    0.003  C.ca2               
     7    0.001  C.ca2               
     8   -0.001  C.ca2               
     9    0.006  H.ca                
    10    0.008  H.ca                
    11   -0.012  C.ca2               
    12    0.005  C.ca2               
    13   -0.000  C.ca2               
    14   -0.000  C.ca2               
    15    0.006  C.ca2               
    16    0.001  C.ca2               
    17   -0.010  C.ca2               
    18   -0.007  C.ca2               
    19   -0.008  C.ca2               
    20   -0.010  C.ca2               
    21    0.005  C.ca2               
    22   -0.005  C.ca2               
    23    0.001  C.ca2               
    24    0.004  C.ca2               
    25    0.005  C.ca2               
    26   -0.014  C.ca2               
    27    0.008  H.ca                
    28    0.008  H.ca                
    29    0.005  C.ca2               
    30   -0.001  C.ca2               
    31   -0.004  C.ca2               
    32    0.005  C.ca2               
    33   -0.014  C.ca2               
    34    0.005  H.ca                
    35    0.003  C.ca2               
    36    0.004  H.ca                
>> End of run:  26-MAR-2018  12:40:13
Job completed
Job completed
