Siesta Version  : siesta-4.1--852
Architecture    : unknown
Compiler version: ifort (IFORT) 17.0.4 20170411
Compiler flags  : mpiifort -O1 -xHost -mp1 -fpp -ftz -I/scicomp/easybuild/CentOS/7.3.1611/Hasweell/software/imkl/2017.3.196-iimpi-2017b/mkl/include -I/scratch/scicomp/easybuild/CentOS/7.3.1611/Haswell/software/netCDF-Fortran/4.4.4-intel-2017b/include -I/scratch/scicomp/easybuild/CentOS/7.3.1611/Haswell/software/netCDF/4.4.1.1-intel-2017b/include
PP flags        :  -DFC_HAVE_ABORT -DMPI -DCDF -DNCDF -DNCDF_4 -DGRID_DP -DNCDF_PARALLEL
Libraries       : libncdf.a libfdict.a -L/scratch/scicomp/easybuild/CentOS/7.3.1611/Haswell/sofftware/netCDF-Fortran/4.4.4-intel-2017b/lib -lnetcdff -L/scratch/scicomp/easybuild/CentOS/7.3.1611/Haswell/software/cURL/7.56.0-GCCcore-6.4.0/lib -lcurl -L/scratch/scicomp/easybuild/CentOS/7.3.1611/Haswell/software/netCDF/4.4.1.1-intel-2017b/lib64 -lnetcdf -L/scratch/scicomp/easybuild/CentOS/7.3.1611/Haswell/software/HDF5/1.10.1-intel-2017b/lib -lhdf5hl_fortran -lhdf5_fortran -lhdf5_hl -lhdf5 -L/scratch/scicomp/easybuild/CentOS/7.3.1611/Haswell/software/Szip/2.1.1-GCCcore-6.4.0/lib -lsz -L/scratch/scicomp/easybuild/CentOS/7.3.1611/Haswell/software/zlib/1.2.11-GCCcore-6.4.0/lib -lz /scicomp/easybuild/CentOS/7.3.1611/Haswell/software/imkl/2017.3.196-iimpi-2017b/mkl/lib/intel64/libmkl_scalapack_lp64.a -Wl,--start-group /scicomp/easybuild/CentOS/7.3.1611/Haswell/software/imkl/2017.3.196-iimpi-2017b/mkl/lib/intel64/libmkl_intel_lp64.a /scicomp/easybuild/CentOS/7.3.1611/Haswell/software/imkl/2017.3.196-iimpi-2017b/mkl/lib/intel64/libmkl_sequential.a /scicomp/easybuild/CentOS/7.3.1611/Haswell/software/imkl/2017.3.196-iimpi-2017b/mkl/lib/intel64/libmkl_core.a /scicomp/easybuild/CentOS/7.3.1611/Haswell/software/imkl/2017.3.196-iimpi-2017b/mkl/lib/intel64/libmkl_blacs_intelmpi_lp64.a -Wl,--end-group -lpthread -lm -ldl
PARALLEL version
NetCDF support
NetCDF-4 support
NetCDF-4 MPI-IO support

* Running on 24 nodes in parallel
>> Start of run:  17-APR-2018  21:19:01

                           ***********************       
                           *  WELCOME TO SIESTA  *       
                           ***********************       

reinit: Reading from standard input
reinit: Dumped input in INPUT_TMP.33370
************************** Dump of input data file ****************************
SystemTitle molecule
SystemLabel molecule
SolutionMethod     diagon
TS.HS.Save         true
MD.TypeOfRun  CG
MD.TypeOfRun  Broyden
MD.Broyden.Cycle.On.Maxit F
MD.NumCGsteps  1000
MD.MaxForceTol 0.002 eV/Ang
Diag.ParallelOverK true
%block kgrid_Monkhorst_Pack
 100    0    0    0.0
  0    1    0    0.0
  0    0    1    0.0
%endblock kgrid_Monkhorst_Pack
MaxSCFIterations      3000
SCFMustConverge       true
DM.Tolerance          1.d-5
DM.UseSaveDM          true
DM.NumberPulay	      7
DM.MixingWeight       0.1
MD.UseSaveXV          true
XC.functional         GGA
XC.authors     	      PBE
MeshCutoff            400. Ry
PAO.BasisSize   DZP
PAO.BasisType   split
%block ChemicalSpeciesLabel
    1   1 H.mpn
    2   6 C.mpn
%endblock ChemicalSpeciesLabel
%include STRUCT.fdf
SpinPolarized   true
#FixSpin  true
#Spin.Fix true
#Spin.Total 0
#TotalSpin  0
%block DM.InitSpin
44   1.
10  -1.
%endblock DM.InitSpin
WriteMullikenPop 1
WriteHirshfeldPop true
WriteVoronoiPop true
WriteEigenvalues true
WriteWaveFunctions true
************************** End of input data file *****************************

reinit: -----------------------------------------------------------------------
reinit: System Name: 
reinit: -----------------------------------------------------------------------
reinit: System Label: molecule
reinit: -----------------------------------------------------------------------

initatom: Reading input for the pseudopotentials and atomic orbitals ----------
Species number:   1 Atomic number:    1 Label: H.mpn
Species number:   2 Atomic number:    6 Label: C.mpn
 
Ground state valence configuration:   1s01
Reading pseudopotential information in unformatted form from H.mpn.vps

Pseudopotential generated from a relativistic atomic calculation

Valence configuration for pseudopotential generation:
1s( 1.00) rc: 1.25
2p( 0.00) rc: 1.25
3d( 0.00) rc: 1.25
4f( 0.00) rc: 1.19
Ground state valence configuration:   2s02  2p02
Reading pseudopotential information in unformatted form from C.mpn.vps

Pseudopotential generated from a relativistic atomic calculation

Valence configuration for pseudopotential generation:
2s( 2.00) rc: 1.25
2p( 2.00) rc: 1.25
3d( 0.00) rc: 1.98
4f( 0.00) rc: 1.98
For H.mpn, standard SIESTA heuristics set lmxkb to 2
 (one more than the basis l, including polarization orbitals).
Use PS.lmax or PS.KBprojectors blocks to override.
For C.mpn, standard SIESTA heuristics set lmxkb to 3
 (one more than the basis l, including polarization orbitals).
Use PS.lmax or PS.KBprojectors blocks to override.

<basis_specs>
===============================================================================
H.mpn                Z=   1    Mass=  1.0100        Charge= 0.17977+309
Lmxo=0 Lmxkb= 2    BasisType=split      Semic=F
L=0  Nsemic=0  Cnfigmx=1
          n=1  nzeta=2  polorb=1
            splnorm:   0.15000    
               vcte:    0.0000    
               rinn:    0.0000    
               qcoe:    0.0000    
               qyuk:    0.0000    
               qwid:   0.10000E-01
                rcs:    0.0000      0.0000    
            lambdas:    1.0000      1.0000    
-------------------------------------------------------------------------------
L=0  Nkbl=1  erefs: 0.17977+309
L=1  Nkbl=1  erefs: 0.17977+309
L=2  Nkbl=1  erefs: 0.17977+309
===============================================================================
</basis_specs>

atom: Called for H.mpn                 (Z =   1)

read_vps: Pseudopotential generation method:
read_vps: ATM3      Troullier-Martins                       
Total valence charge:    1.00000

xc_check: Exchange-correlation functional:
xc_check: GGA Perdew, Burke & Ernzerhof 1996
V l=0 = -2*Zval/r beyond r=  1.2343
V l=1 = -2*Zval/r beyond r=  1.2189
V l=2 = -2*Zval/r beyond r=  1.2189
All V_l potentials equal beyond r=  1.2343
This should be close to max(r_c) in ps generation
All pots = -2*Zval/r beyond r=  1.2343

VLOCAL1: 99.0% of the norm of Vloc inside     28.493 Ry
VLOCAL1: 99.9% of the norm of Vloc inside     64.935 Ry
atom: Maximum radius for 4*pi*r*r*local-pseudopot. charge    1.45251
atom: Maximum radius for r*vlocal+2*Zval:    1.21892
GHOST: No ghost state for L =  0
GHOST: No ghost state for L =  1
GHOST: No ghost state for L =  2

KBgen: Kleinman-Bylander projectors: 
   l= 0   rc=  1.398961   el= -0.477184   Ekb= -2.022489   kbcos= -0.344760
   l= 1   rc=  1.730774   el=  0.001076   Ekb= -0.447448   kbcos= -0.022756
   l= 2   rc=  2.036604   el=  0.002010   Ekb= -0.163621   kbcos= -0.002660

KBgen: Total number of  Kleinman-Bylander projectors:    9
atom: -------------------------------------------------------------------------

atom: SANKEY-TYPE ORBITALS:
atom: Selected multiple-zeta basis: split     

SPLIT: Orbitals with angular momentum L= 0

SPLIT: Basis orbitals for state 1s

SPLIT: PAO cut-off radius determined from an
SPLIT: energy shift=  0.020000 Ry

   izeta = 1
                 lambda =    1.000000
                     rc =    4.708991
                 energy =   -0.457736
                kinetic =    0.981128
    potential(screened) =   -1.438864
       potential(ionic) =   -1.967294

   izeta = 2
                 rmatch =    3.759707
              splitnorm =    0.150000
                 energy =   -0.338971
                kinetic =    1.585754
    potential(screened) =   -1.924724
       potential(ionic) =   -2.475189

POLgen: Perturbative polarization orbital with L=  1

POLgen: Polarization orbital for state 1s

   izeta = 1
                     rc =    4.708991
                 energy =    0.764910
                kinetic =    1.475806
    potential(screened) =   -0.710896
       potential(ionic) =   -1.203352
atom: Total number of Sankey-type orbitals:  5

atm_pop: Valence configuration (for local Pseudopot. screening):
 1s( 1.00)                                                            
Vna: chval, zval:    1.00000   1.00000

Vna:  Cut-off radius for the neutral-atom potential:   4.708991

atom: _________________________________________________________________________

<basis_specs>
===============================================================================
C.mpn                Z=   6    Mass=  12.010        Charge= 0.17977+309
Lmxo=1 Lmxkb= 3    BasisType=split      Semic=F
L=0  Nsemic=0  Cnfigmx=2
          n=1  nzeta=2  polorb=0
            splnorm:   0.15000    
               vcte:    0.0000    
               rinn:    0.0000    
               qcoe:    0.0000    
               qyuk:    0.0000    
               qwid:   0.10000E-01
                rcs:    0.0000      0.0000    
            lambdas:    1.0000      1.0000    
L=1  Nsemic=0  Cnfigmx=2
          n=1  nzeta=2  polorb=1
            splnorm:   0.15000    
               vcte:    0.0000    
               rinn:    0.0000    
               qcoe:    0.0000    
               qyuk:    0.0000    
               qwid:   0.10000E-01
                rcs:    0.0000      0.0000    
            lambdas:    1.0000      1.0000    
-------------------------------------------------------------------------------
L=0  Nkbl=1  erefs: 0.17977+309
L=1  Nkbl=1  erefs: 0.17977+309
L=2  Nkbl=1  erefs: 0.17977+309
L=3  Nkbl=1  erefs: 0.17977+309
===============================================================================
</basis_specs>

atom: Called for C.mpn                 (Z =   6)

read_vps: Pseudopotential generation method:
read_vps: ATM3      Troullier-Martins                       
Total valence charge:    4.00000

xc_check: Exchange-correlation functional:
xc_check: GGA Perdew, Burke & Ernzerhof 1996
V l=0 = -2*Zval/r beyond r=  1.5418
V l=1 = -2*Zval/r beyond r=  1.5418
V l=2 = -2*Zval/r beyond r=  1.9553
V l=3 = -2*Zval/r beyond r=  1.9310
All V_l potentials equal beyond r=  1.9310
This should be close to max(r_c) in ps generation
All pots = -2*Zval/r beyond r=  1.9553

VLOCAL1: 99.0% of the norm of Vloc inside     11.642 Ry
VLOCAL1: 99.9% of the norm of Vloc inside     26.531 Ry
atom: Maximum radius for 4*pi*r*r*local-pseudopot. charge    2.30035
atom: Maximum radius for r*vlocal+2*Zval:    2.00478
GHOST: No ghost state for L =  0
GHOST: No ghost state for L =  1
GHOST: No ghost state for L =  2
GHOST: No ghost state for L =  3

KBgen: Kleinman-Bylander projectors: 
   l= 0   rc=  2.134104   el= -1.010225   Ekb= 11.465766   kbcos=  0.116141
   l= 1   rc=  2.107589   el= -0.388560   Ekb= -6.457899   kbcos= -0.368830
   l= 2   rc=  2.300349   el=  0.001971   Ekb= -0.774314   kbcos= -0.017397
   l= 3   rc=  2.542323   el=  0.003065   Ekb= -0.308789   kbcos= -0.003148

KBgen: Total number of  Kleinman-Bylander projectors:   16
atom: -------------------------------------------------------------------------

atom: SANKEY-TYPE ORBITALS:
atom: Selected multiple-zeta basis: split     

SPLIT: Orbitals with angular momentum L= 0

SPLIT: Basis orbitals for state 2s

SPLIT: PAO cut-off radius determined from an
SPLIT: energy shift=  0.020000 Ry

   izeta = 1
                 lambda =    1.000000
                     rc =    4.088342
                 energy =   -0.989563
                kinetic =    0.944133
    potential(screened) =   -1.933696
       potential(ionic) =   -5.541314

   izeta = 2
                 rmatch =    3.347176
              splitnorm =    0.150000
                 energy =   -0.831414
                kinetic =    1.451472
    potential(screened) =   -2.282886
       potential(ionic) =   -6.119280

SPLIT: Orbitals with angular momentum L= 1

SPLIT: Basis orbitals for state 2p

SPLIT: PAO cut-off radius determined from an
SPLIT: energy shift=  0.020000 Ry

   izeta = 1
                 lambda =    1.000000
                     rc =    4.870301
                 energy =   -0.368749
                kinetic =    2.591962
    potential(screened) =   -2.960711
       potential(ionic) =   -6.464403

   izeta = 2
                 rmatch =    3.475094
              splitnorm =    0.150000
                 energy =   -0.206255
                kinetic =    3.888945
    potential(screened) =   -4.095199
       potential(ionic) =   -7.968192

POLgen: Perturbative polarization orbital with L=  2

POLgen: Polarization orbital for state 2p

   izeta = 1
                     rc =    4.870301
                 energy =    1.295231
                kinetic =    2.621946
    potential(screened) =   -1.326714
       potential(ionic) =   -4.277432
atom: Total number of Sankey-type orbitals: 13

atm_pop: Valence configuration (for local Pseudopot. screening):
 2s( 2.00)                                                            
 2p( 2.00)                                                            
Vna: chval, zval:    4.00000   4.00000

Vna:  Cut-off radius for the neutral-atom potential:   4.870301

atom: _________________________________________________________________________

prinput: Basis input ----------------------------------------------------------

PAO.BasisType split     

%block ChemicalSpeciesLabel
    1    1 H.mpn                   # Species index, atomic number, species label
    2    6 C.mpn                   # Species index, atomic number, species label
%endblock ChemicalSpeciesLabel

%block PAO.Basis                 # Define Basis set
H.mpn                 1                    # Species label, number of l-shells
 n=1   0   2 P   1                   # n, l, Nzeta, Polarization, NzetaPol
   4.709      3.760   
   1.000      1.000   
C.mpn                 2                    # Species label, number of l-shells
 n=2   0   2                         # n, l, Nzeta 
   4.088      3.347   
   1.000      1.000   
 n=2   1   2 P   1                   # n, l, Nzeta, Polarization, NzetaPol
   4.870      3.475   
   1.000      1.000   
%endblock PAO.Basis

prinput: ----------------------------------------------------------------------

Dumping basis to NetCDF file H.mpn.ion.nc
Dumping basis to NetCDF file C.mpn.ion.nc
coor:   Atomic-coordinates input format  =     Cartesian coordinates
coor:                                          (in Angstroms)

siesta: WARNING: XV file not found

siesta: Atomic coordinates (Bohr) and species
siesta:     21.88087  11.65359  18.89727  1        1
siesta:     20.37129  15.45991  18.89727  2        2
siesta:     26.29718  10.55071  18.89727  1        3
siesta:     22.31307  13.69207  18.89727  2        4
siesta:     24.87310  14.38720  18.89727  2        5
siesta:     21.00751  18.09091  18.89727  2        6
siesta:     23.58362  18.84253  18.89727  2        7
siesta:     22.30623  23.30128  18.89727  2        8
siesta:     30.77964   9.42104  18.89727  1        9
siesta:     26.80224  12.57588  18.89727  2       10
siesta:     29.34343  13.26762  18.89727  2       11
siesta:     25.52539  17.00685  18.89727  2       12
siesta:     28.09792  17.73665  18.89727  2       13
siesta:     24.23586  21.45071  18.89727  2       14
siesta:     26.81761  22.18760  18.89727  2       15
siesta:     22.95594  25.90840  18.89727  2       16
siesta:     25.53488  26.64507  18.89727  2       17
siesta:     24.25847  31.10839  18.89727  2       18
siesta:     31.29959  11.43989  18.89727  2       19
siesta:     33.78255  12.14993  18.89727  2       20
siesta:     30.02314  15.87827  18.89727  2       21
siesta:     32.60756  16.59495  18.89727  2       22
siesta:     28.74999  20.34027  18.89727  2       23
siesta:     31.33473  21.06580  18.89727  2       24
siesta:     27.46748  24.79390  18.89727  2       25
siesta:     30.04956  25.52536  18.89727  2       26
siesta:     26.18267  29.25330  18.89727  2       27
siesta:     28.76722  29.97927  18.89727  2       28
siesta:     24.91111  33.72439  18.89727  2       29
siesta:     27.49549  34.44145  18.89727  2       30
siesta:     26.21867  38.88010  18.89727  2       31
siesta:     22.27450  39.65216  18.89727  1       32
siesta:     35.24378  10.66733  18.89727  1       33
siesta:     34.51582  14.72153  18.89727  2       34
siesta:     33.25955  19.21091  18.89727  2       35
siesta:     35.84147  19.94589  18.89727  2       36
siesta:     31.98214  23.67404  18.89727  2       37
siesta:     34.56108  24.41061  18.89727  2       38
siesta:     30.69957  28.13169  18.89727  2       39
siesta:     33.28155  28.86828  18.89727  2       40
siesta:     29.42021  32.58266  18.89727  2       41
siesta:     31.99282  33.31201  18.89727  2       42
siesta:     28.17493  37.05233  18.89727  2       43
siesta:     30.71637  37.74315  18.89727  2       44
siesta:     36.48993  22.55478  18.89727  2       45
siesta:     35.21105  27.01761  18.89727  2       46
siesta:     37.78928  27.76441  18.89727  2       47
siesta:     33.93436  31.47641  18.89727  2       48
siesta:     36.51064  32.22823  18.89727  2       49
siesta:     32.64533  35.93147  18.89727  2       50
siesta:     35.20522  36.62690  18.89727  2       51
siesta:     26.73827  40.89913  18.89727  1       52
siesta:     38.43848  30.37319  18.89727  2       53
siesta:     37.14723  34.85924  18.89727  2       54
siesta:     39.76473  35.59794  18.89727  2       55
siesta:     31.22193  39.76812  18.89727  1       56
siesta:     40.49768  38.16965  18.89727  2       57
siesta:     35.63639  38.66557  18.89727  1       58

siesta: System type = chain     

initatomlists: Number of atoms, orbitals, and projectors:     58   690   872

siesta: ******************** Simulation parameters ****************************
siesta:
siesta: The following are some of the parameters of the simulation.
siesta: A complete list of the parameters used, including default values,
siesta: can be found in file out.fdf
siesta:
redata: Spin configuration                          = collinear
redata: Number of spin components                   = 2
redata: Time-Reversal Symmetry                      = T
redata: Spin-spiral                                 = F
redata: Long output                                 =   F
redata: Number of Atomic Species                    =        2
redata: Charge density info will appear in .RHO file
redata: Write Mulliken Pop.                         = Atomic and Orbital charges
redata: Mesh Cutoff                                 =   400.0000 Ry
redata: Net charge of the system                    =     0.0000 |e|
redata: Min. number of SCF Iter                     =        0
redata: Max. number of SCF Iter                     =     3000
redata: SCF convergence failure will abort job
redata: SCF mix quantity                            = Hamiltonian
redata: Mix DM or H after convergence               =   F
redata: Recompute H after scf cycle                 =   F
redata: Mix DM in first SCF step                    =   T
redata: Write Pulay info on disk                    =   F
redata: New DM Mixing Weight                        =     0.1000
redata: New DM Occupancy tolerance                  = 0.000000000001
redata: No kicks to SCF
redata: DM Mixing Weight for Kicks                  =     0.5000
redata: Require Harris convergence for SCF          =   F
redata: Harris energy tolerance for SCF             =     0.000100 eV
redata: Require DM convergence for SCF              =   T
redata: DM tolerance for SCF                        =     0.000010
redata: Require EDM convergence for SCF             =   F
redata: EDM tolerance for SCF                       =     0.001000 eV
redata: Require H convergence for SCF               =   T
redata: Hamiltonian tolerance for SCF               =     0.001000 eV
redata: Require (free) Energy convergence for SCF   =   F
redata: (free) Energy tolerance for SCF             =     0.000100 eV
redata: Antiferro initial spin density              =   F
redata: Using Saved Data (generic)                  =   F
redata: Use continuation files for DM               =   T
redata: Neglect nonoverlap interactions             =   F
redata: Method of Calculation                       = Diagonalization
redata: Electronic Temperature                      =   299.9869 K
redata: Fix the spin of the system                  =   F
redata: Dynamics option                             = CG coord. optimization
redata: Variable cell                               =   F
redata: Use continuation files for CG               =   F
redata: Max atomic displ per move                   =     0.1058 Ang
redata: Maximum number of CG moves                  =     1000
redata: Force tolerance                             =     0.0020 eV/Ang
mix.SCF: Pulay mixing                            = Pulay
mix.SCF:    Variant                              = stable
mix.SCF:    History steps                        = 7
mix.SCF:    Linear mixing weight                 =     0.100000
mix.SCF:    Mixing weight                        =     0.100000
mix.SCF:    SVD condition                        = 0.1000E-07
mix.SCF: Spin-component mixing                   all
redata: Save all siesta data in one NC              =   F
redata: ***********************************************************************

%block SCF.Mixers
  Pulay
%endblock SCF.Mixers

%block SCF.Mixer.Pulay
  # Mixing method
  method pulay
  variant stable

  # Mixing options
  weight 0.1000
  weight.linear 0.1000
  history 7
%endblock SCF.Mixer.Pulay
 
DM_history_depth set to one: no extrapolation allowed by default for geometry relaxation
Size of DM history Fstack: 1
Total number of electrons:   208.000000
Total ionic charge:   208.000000

* ProcessorY, Blocksize:    4  24


* Orbital distribution balance (max,min):    48    24

k-point displ. along   1 input, could be:     0.00    0.50
 Kpoints in:           51 . Kpoints trimmed:           51

siesta: k-grid: Number of k-points =    51
siesta: k-grid: Cutoff (effective) =    10.000 Ang
siesta: k-grid: Supercell and displacements
siesta: k-grid:  100   0   0      0.000
siesta: k-grid:    0   1   0      0.000
siesta: k-grid:    0   0   1      0.000
 
diag: Algorithm                                     = D&C
diag: Parallel over k                               =   T
diag: Use parallel 2D distribution                  =   T
diag: Parallel block-size                           = 24
diag: Parallel distribution                         =     4 x     6
diag: Used triangular part                          = Lower
diag: Absolute tolerance                            =  0.100E-15
diag: Orthogonalization factor                      =  0.100E-05
diag: Memory factor                                 =  1.0000

superc: Internal auxiliary supercell:     3 x     1 x     1  =       3
superc: Number of atoms, orbitals, and projectors:    174   2070   2616
 
 
ts: **************************************************************
ts: Save H and S matrices                           =    T
ts: Save DM and EDM matrices                        =    F
ts: Fix Hartree potential                           =    F
ts: Only save the overlap matrix S                  =    F
ts: **************************************************************
 
************************ Begin: TS CHECKS AND WARNINGS ************************
************************ End: TS CHECKS AND WARNINGS **************************


                     ====================================
                        Begin CG opt. move =      0
                     ====================================

superc: Internal auxiliary supercell:     3 x     1 x     1  =       3
superc: Number of atoms, orbitals, and projectors:    174   2070   2616

outcell: Unit cell vectors (Ang):
        8.970000    0.000000    0.000000
        0.000000   50.000000    0.000000
        0.000000    0.000000   20.000000

outcell: Cell vector modules (Ang)   :    8.970000   50.000000   20.000000
outcell: Cell angles (23,13,12) (deg):     90.0000     90.0000     90.0000
outcell: Cell volume (Ang**3)        :   8970.0000
<dSpData1D:S at geom step 0
  <sparsity:sparsity for geom step 0
    nrows_g=690 nrows=48 sparsity=.0529 nnzs=25203, refcount: 7>
  <dData1D:(new from dSpData1D) n=25203, refcount: 1>
refcount: 1>
new_DM -- step:     1
Initializing Density Matrix...
 
Attempting to read DM from file... Failed...
DM filled with atomic data (user-defined):
<dSpData2D:DM initialized from atoms
  <sparsity:sparsity for geom step 0
    nrows_g=690 nrows=48 sparsity=.0529 nnzs=25203, refcount: 8>
  <dData2D:DM n=25203 m=2, refcount: 1>
refcount: 1>

initDM: Initial spin polarization (Qup-Qdown) =    0.000000

No. of atoms with KB's overlaping orbs in proc 0. Max # of overlaps:      50     217
New grid distribution:   1
           1       1:   54    1:   80    1:   21
           2       1:   54    1:   80   22:   42
           3       1:   54    1:   80   43:   63
           4       1:   54    1:   80   64:   84
           5       1:   54    1:   80   85:  105
           6       1:   54    1:   80  106:  125
           7       1:   54   81:  160    1:   21
           8       1:   54   81:  160   22:   42
           9       1:   54   81:  160   43:   63
          10       1:   54   81:  160   64:   84
          11       1:   54   81:  160   85:  105
          12       1:   54   81:  160  106:  125
          13       1:   54  161:  240    1:   21
          14       1:   54  161:  240   22:   42
          15       1:   54  161:  240   43:   63
          16       1:   54  161:  240   64:   84
          17       1:   54  161:  240   85:  105
          18       1:   54  161:  240  106:  125
          19       1:   54  241:  320    1:   21
          20       1:   54  241:  320   22:   42
          21       1:   54  241:  320   43:   63
          22       1:   54  241:  320   64:   84
          23       1:   54  241:  320   85:  105
          24       1:   54  241:  320  106:  125

InitMesh: MESH =   108 x   640 x   250 =    17280000
InitMesh: (bp) =    54 x   320 x   125 =     2160000
InitMesh: Mesh cutoff (required, used) =   400.000   400.649 Ry
ExtMesh (bp) on 0 =   118 x   148 x    89 =     1554296
New grid distribution:   2
           1       1:   54    1:   47    1:   63
           2       1:   54   95:  109    1:   59
           3       1:   54   64:   71    1:   63
           4       1:   54   48:   63   64:   67
           5       1:   54    1:   47   64:  125
           6       1:   54   48:   63   68:  125
           7       1:   54  110:  117    1:   63
           8       1:   54   48:   63   60:   63
           9       1:   54   48:   63    1:   59
          10       1:   54   72:   86    1:   59
          11       1:   54   87:   94    1:   63
          12       1:   54   72:   86   60:   63
          13       1:   54  118:  320    1:   58
          14       1:   54   72:   86   68:  125
          15       1:   54   87:   94   64:  125
          16       1:   54   95:  109   60:   63
          17       1:   54  118:  320   68:  125
          18       1:   54   95:  109   68:  125
          19       1:   54   64:   71   64:  125
          20       1:   54   95:  109   64:   67
          21       1:   54  118:  320   59:   63
          22       1:   54  118:  320   64:   67
          23       1:   54  110:  117   64:  125
          24       1:   54   72:   86   64:   67
New grid distribution:   3
           1       1:   54    1:   34    1:   63
           2       1:   54   35:   55    1:   55
           3       1:   54   56:   66    1:   63
           4       1:   54   35:   55   64:   71
           5       1:   54    1:   34   64:  125
           6       1:   54   66:   86   64:   71
           7       1:   54   98:  118    1:   55
           8       1:   54  119:  129    1:   63
           9       1:   54  130:  320   57:   63
          10       1:   54   87:   97    1:   63
          11       1:   54   66:   86   72:  125
          12       1:   54   35:   55   56:   63
          13       1:   54  130:  320    1:   56
          14       1:   54   98:  118   72:  125
          15       1:   54   87:   97   64:  125
          16       1:   54   98:  118   56:   63
          17       1:   54  129:  320   71:  125
          18       1:   54   35:   55   72:  125
          19       1:   54   56:   65   64:  125
          20       1:   54   98:  118   64:   71
          21       1:   54   67:   86    1:   55
          22       1:   54  129:  320   64:   70
          23       1:   54  119:  128   64:  125
          24       1:   54   67:   86   56:   63
Setting up quadratic distribution...
ExtMesh (bp) on 0 =   118 x   115 x   131 =     1777670
PhiOnMesh: Number of (b)points on node 0 =               159894
PhiOnMesh: nlist on node 0 =               600458

stepf: Fermi-Dirac step function

siesta: Program's energy decomposition (eV):
siesta: Ebs     =     -2394.787347
siesta: Eions   =     10235.245348
siesta: Ena     =      1015.211177
siesta: Ekin    =      5871.381342
siesta: Enl     =     -1862.121691
siesta: Eso     =         0.000000
siesta: Eldau   =         0.000000
siesta: DEna    =      -180.430540
siesta: DUscf   =        19.977304
siesta: DUext   =         0.000000
siesta: Enegf   =         0.000000
siesta: Exc     =     -2484.980798
siesta: eta*DQ  =         0.000000
siesta: Emadel  =         0.000000
siesta: Emeta   =         0.000000
siesta: Emolmec =         0.000000
siesta: Ekinion =         0.000000
siesta: Eharris =     -7886.255778
siesta: Etot    =     -7856.208555
siesta: FreeEng =     -7856.209245

        iscf     Eharris(eV)        E_KS(eV)     FreeEng(eV)     dDmax    Ef(eV) dHmax(eV)
   scf:    1    -7886.255778    -7856.208555    -7856.209245  0.967931 -4.985409  5.266810
timer: Routine,Calls,Time,% = IterSCF        1      11.399  74.65
   scf:    2    -7858.221977    -7857.263076    -7857.263608  0.008980 -4.715085  4.058815
   scf:    3    -7860.038044    -7858.964518    -7858.964977  0.030783 -3.793274  1.839579
   scf:    4    -7859.543456    -7859.314954    -7859.315401  0.020584 -3.367843  0.440839
   scf:    5    -7859.393467    -7859.361163    -7859.361588  0.005004 -3.338694  0.246473
   scf:    6    -7859.368270    -7859.365066    -7859.365477  0.001091 -3.352334  0.192378
   scf:    7    -7859.383669    -7859.374828    -7859.375200  0.001863 -3.355967  0.106958
   scf:    8    -7859.380121    -7859.377602    -7859.377955  0.001762 -3.346215  0.069774
   scf:    9    -7859.381894    -7859.379670    -7859.379992  0.001313 -3.350957  0.044930
   scf:   10    -7859.381083    -7859.380354    -7859.380660  0.000500 -3.351381  0.038841
   scf:   11    -7859.383706    -7859.381796    -7859.382057  0.001566 -3.352929  0.019561
   scf:   12    -7859.382178    -7859.381978    -7859.382229  0.000341 -3.352500  0.013212
   scf:   13    -7859.382259    -7859.382112    -7859.382352  0.000281 -3.352005  0.009504
   scf:   14    -7859.382566    -7859.382313    -7859.382534  0.000558 -3.351533  0.006347
   scf:   15    -7859.382486    -7859.382392    -7859.382603  0.000298 -3.351438  0.005088
   scf:   16    -7859.382511    -7859.382447    -7859.382649  0.000242 -3.351366  0.003811
   scf:   17    -7859.382586    -7859.382506    -7859.382697  0.000341 -3.351204  0.004992
   scf:   18    -7859.382551    -7859.382527    -7859.382712  0.000138 -3.350952  0.003759
   scf:   19    -7859.382552    -7859.382539    -7859.382721  0.000097 -3.350800  0.002757
   scf:   20    -7859.382583    -7859.382557    -7859.382733  0.000189 -3.350723  0.002203
   scf:   21    -7859.382566    -7859.382561    -7859.382735  0.000054 -3.350714  0.001803
   scf:   22    -7859.382571    -7859.382566    -7859.382737  0.000084 -3.350684  0.001009
   scf:   23    -7859.382571    -7859.382568    -7859.382738  0.000054 -3.350648  0.000495
   scf:   24    -7859.382569    -7859.382569    -7859.382738  0.000018 -3.350641  0.000349
   scf:   25    -7859.382570    -7859.382569    -7859.382739  0.000025 -3.350642  0.000350
   scf:   26    -7859.382571    -7859.382570    -7859.382739  0.000017 -3.350659  0.000303
   scf:   27    -7859.382571    -7859.382570    -7859.382739  0.000004 -3.350659  0.000269

SCF Convergence by DM+H criterion
max |DM_out - DM_in|         :     0.0000040348
max |H_out - H_in|      (eV) :     0.0002689695
SCF cycle converged after 27 iterations

Using DM_out to compute the final energy and forces
No. of atoms with KB's overlaping orbs in proc 0. Max # of overlaps:      50     217

siesta: E_KS(eV) =            -7859.3826

siesta: E_KS - E_eggbox =     -7859.3826

siesta: Total spin polarization (Qup-Qdown) =    0.000261

siesta: Atomic forces (eV/Ang):
----------------------------------------
   Tot    0.011865    0.012979   -0.000000
----------------------------------------
   Max    4.767357
   Res    0.810513    sqrt( Sum f_i^2 / 3N )
----------------------------------------
   Max    4.767357    constrained

Stress-tensor-Voigt (kbar):       -3.55       -7.87        0.01        0.06       -0.00        0.00
(Free)E + p*V (eV/cell)    -7838.0855
Target enthalpy (eV/cell)    -7859.3827
 
mulliken: Atomic and Orbital Populations:

mulliken: Spin UP 

Species: H.mpn               
Atom  Qatom  Qorb
               1s      1s      1Ppy    1Ppz    1Ppx    
   1  0.619   0.420   0.150   0.022   0.015   0.011
   3  0.621   0.430   0.143   0.022   0.015   0.011
   9  0.621   0.433   0.139   0.021   0.016   0.012
  32  0.624   0.414   0.157   0.017   0.018   0.018
  33  0.618   0.420   0.146   0.016   0.018   0.018
  52  0.620   0.428   0.139   0.021   0.019   0.012
  56  0.618   0.424   0.142   0.022   0.020   0.011
  58  0.616   0.413   0.151   0.022   0.019   0.011

Species: C.mpn               
Atom  Qatom  Qorb
               2s      2s      2py     2pz     2px     2py     2pz     2px     
               2Pdxy   2Pdyz   2Pdz2   2Pdxz   2Pdx2-y2
   2  2.003   0.246   0.257   0.226   0.405   0.235   0.251   0.079   0.237
              0.020   0.013   0.001   0.012   0.022
   4  1.843   0.193   0.276   0.075   0.353   0.244   0.348   0.055   0.242
              0.015   0.005   0.001   0.016   0.021
   5  1.982   0.223   0.267   0.210   0.381   0.207   0.261   0.094   0.269
              0.021   0.014   0.001   0.013   0.021
   6  1.978   0.250   0.253   0.235   0.381   0.231   0.242   0.070   0.245
              0.022   0.015   0.001   0.015   0.020
   7  2.009   0.232   0.263   0.227   0.391   0.224   0.255   0.087   0.257
              0.021   0.015   0.001   0.015   0.021
   8  2.012   0.250   0.255   0.236   0.405   0.237   0.248   0.075   0.235
              0.020   0.015   0.001   0.013   0.021
  10  1.834   0.194   0.276   0.073   0.351   0.245   0.347   0.051   0.241
              0.015   0.005   0.001   0.016   0.020
  11  1.982   0.225   0.266   0.209   0.381   0.203   0.261   0.093   0.273
              0.021   0.014   0.001   0.013   0.021
  12  1.988   0.237   0.259   0.221   0.378   0.222   0.258   0.081   0.257
              0.021   0.015   0.001   0.015   0.021
  13  2.011   0.232   0.264   0.225   0.392   0.224   0.257   0.087   0.258
              0.021   0.015   0.001   0.015   0.021
  14  1.988   0.234   0.261   0.224   0.376   0.225   0.256   0.082   0.255
              0.021   0.016   0.001   0.015   0.021
  15  2.007   0.234   0.263   0.226   0.392   0.224   0.256   0.085   0.256
              0.021   0.015   0.001   0.015   0.021
  16  1.989   0.247   0.255   0.239   0.387   0.229   0.241   0.073   0.247
              0.021   0.015   0.001   0.015   0.020
  17  2.009   0.233   0.263   0.226   0.392   0.224   0.255   0.087   0.256
              0.021   0.015   0.001   0.015   0.021
  18  2.026   0.250   0.256   0.236   0.416   0.239   0.248   0.077   0.234
              0.020   0.015   0.001   0.013   0.021
  19  1.852   0.185   0.280   0.077   0.366   0.231   0.346   0.064   0.247
              0.015   0.004   0.001   0.016   0.019
  20  1.911   0.181   0.285   0.154   0.407   0.151   0.298   0.076   0.306
              0.022   0.008   0.000   0.009   0.013
  21  1.982   0.238   0.258   0.222   0.374   0.224   0.257   0.080   0.255
              0.021   0.015   0.002   0.015   0.021
  22  2.011   0.233   0.263   0.223   0.393   0.223   0.257   0.087   0.259
              0.021   0.014   0.001   0.014   0.022
  23  1.981   0.235   0.260   0.225   0.372   0.224   0.256   0.079   0.256
              0.021   0.016   0.001   0.016   0.021
  24  2.009   0.234   0.263   0.226   0.393   0.224   0.255   0.085   0.257
              0.021   0.015   0.001   0.014   0.021
  25  1.990   0.235   0.261   0.226   0.379   0.224   0.254   0.081   0.255
              0.021   0.016   0.001   0.016   0.021
  26  2.011   0.234   0.263   0.225   0.395   0.224   0.256   0.086   0.256
              0.021   0.015   0.001   0.015   0.021
  27  1.991   0.234   0.261   0.224   0.378   0.226   0.255   0.082   0.255
              0.021   0.016   0.001   0.016   0.021
  28  2.014   0.234   0.263   0.225   0.396   0.224   0.257   0.087   0.256
              0.021   0.015   0.001   0.015   0.021
  29  1.989   0.248   0.254   0.238   0.384   0.229   0.241   0.073   0.248
              0.021   0.016   0.001   0.016   0.021
  30  2.014   0.235   0.262   0.223   0.396   0.224   0.258   0.088   0.256
              0.021   0.014   0.001   0.015   0.021
  31  1.949   0.199   0.280   0.088   0.456   0.242   0.338   0.065   0.230
              0.014   0.004   0.001   0.013   0.019
  34  1.934   0.254   0.248   0.222   0.358   0.240   0.250   0.064   0.228
              0.020   0.015   0.001   0.014   0.021
  35  1.977   0.235   0.259   0.225   0.371   0.225   0.254   0.079   0.254
              0.021   0.016   0.001   0.016   0.021
  36  2.013   0.245   0.257   0.239   0.404   0.229   0.242   0.077   0.248
              0.021   0.014   0.001   0.014   0.020
  37  1.991   0.235   0.261   0.226   0.380   0.225   0.255   0.082   0.255
              0.021   0.016   0.001   0.016   0.021
  38  2.009   0.232   0.263   0.225   0.391   0.226   0.256   0.087   0.256
              0.021   0.015   0.001   0.015   0.021
  39  1.992   0.235   0.261   0.225   0.380   0.224   0.255   0.081   0.255
              0.021   0.016   0.001   0.016   0.021
  40  2.008   0.234   0.262   0.226   0.392   0.224   0.256   0.086   0.256
              0.021   0.015   0.001   0.015   0.021
  41  1.990   0.234   0.261   0.225   0.376   0.223   0.255   0.082   0.257
              0.021   0.016   0.001   0.016   0.021
  42  2.013   0.235   0.262   0.221   0.396   0.223   0.259   0.087   0.258
              0.021   0.014   0.001   0.015   0.021
  43  1.954   0.227   0.261   0.210   0.356   0.206   0.258   0.088   0.268
              0.021   0.015   0.001   0.022   0.022
  44  1.993   0.191   0.285   0.077   0.467   0.248   0.349   0.080   0.242
              0.015   0.004   0.000   0.015   0.019
  45  1.992   0.251   0.253   0.236   0.391   0.238   0.247   0.071   0.233
              0.020   0.016   0.001   0.014   0.021
  46  1.990   0.234   0.261   0.226   0.378   0.224   0.255   0.083   0.255
              0.021   0.016   0.001   0.016   0.021
  47  2.011   0.246   0.257   0.238   0.403   0.229   0.242   0.077   0.247
              0.021   0.014   0.001   0.014   0.020
  48  1.990   0.235   0.261   0.226   0.378   0.224   0.254   0.082   0.255
              0.021   0.015   0.001   0.016   0.021
  49  2.017   0.235   0.262   0.222   0.399   0.227   0.257   0.087   0.255
              0.021   0.014   0.001   0.015   0.021
  50  1.954   0.226   0.261   0.211   0.357   0.210   0.258   0.087   0.263
              0.021   0.016   0.001   0.022   0.021
  51  1.989   0.191   0.285   0.079   0.461   0.245   0.349   0.080   0.244
              0.015   0.004   0.000   0.015   0.020
  53  1.990   0.251   0.253   0.237   0.389   0.237   0.247   0.070   0.233
              0.020   0.016   0.001   0.015   0.021
  54  1.967   0.232   0.259   0.217   0.366   0.221   0.255   0.082   0.254
              0.020   0.016   0.001   0.020   0.022
  55  2.037   0.244   0.259   0.222   0.431   0.232   0.248   0.087   0.243
              0.022   0.013   0.001   0.015   0.020
  57  1.867   0.181   0.283   0.133   0.387   0.169   0.317   0.057   0.284
              0.022   0.011   0.001   0.010   0.012

mulliken: Qtot =      104.000

mulliken: Spin DOWN 

Species: H.mpn               
Atom  Qatom  Qorb
               1s      1s      1Ppy    1Ppz    1Ppx    
   1  0.617   0.414   0.150   0.022   0.019   0.011
   3  0.618   0.424   0.142   0.022   0.020   0.011
   9  0.619   0.429   0.138   0.021   0.019   0.012
  32  0.624   0.412   0.157   0.017   0.020   0.018
  33  0.618   0.422   0.146   0.016   0.016   0.018
  52  0.621   0.432   0.139   0.021   0.016   0.012
  56  0.621   0.430   0.143   0.022   0.015   0.011
  58  0.619   0.419   0.151   0.022   0.015   0.012

Species: C.mpn               
Atom  Qatom  Qorb
               2s      2s      2py     2pz     2px     2py     2pz     2px     
               2Pdxy   2Pdyz   2Pdz2   2Pdxz   2Pdx2-y2
   2  1.971   0.250   0.252   0.227   0.377   0.237   0.247   0.072   0.232
              0.020   0.017   0.001   0.017   0.022
   4  1.983   0.190   0.284   0.078   0.457   0.246   0.350   0.080   0.243
              0.015   0.004   0.000   0.015   0.020
   5  1.954   0.227   0.261   0.211   0.357   0.209   0.258   0.088   0.264
              0.021   0.016   0.001   0.021   0.021
   6  2.024   0.248   0.257   0.235   0.415   0.231   0.244   0.079   0.246
              0.022   0.013   0.001   0.014   0.020
   7  1.989   0.234   0.261   0.227   0.376   0.224   0.254   0.083   0.255
              0.021   0.016   0.001   0.016   0.021
   8  1.992   0.251   0.253   0.236   0.390   0.237   0.247   0.071   0.234
              0.020   0.016   0.001   0.014   0.021
  10  1.990   0.191   0.285   0.077   0.465   0.247   0.348   0.079   0.243
              0.015   0.004   0.000   0.015   0.020
  11  1.955   0.228   0.261   0.210   0.358   0.205   0.258   0.087   0.268
              0.021   0.015   0.001   0.021   0.021
  12  2.011   0.236   0.262   0.221   0.394   0.223   0.259   0.087   0.258
              0.021   0.014   0.001   0.015   0.021
  13  1.989   0.234   0.261   0.224   0.376   0.224   0.256   0.082   0.257
              0.021   0.016   0.001   0.016   0.021
  14  2.011   0.233   0.263   0.224   0.393   0.225   0.257   0.087   0.256
              0.021   0.015   0.001   0.015   0.021
  15  1.992   0.235   0.261   0.226   0.380   0.224   0.255   0.082   0.255
              0.021   0.016   0.001   0.016   0.021
  16  2.012   0.245   0.257   0.239   0.403   0.229   0.242   0.078   0.248
              0.021   0.014   0.001   0.014   0.020
  17  1.990   0.234   0.261   0.226   0.379   0.224   0.254   0.083   0.255
              0.021   0.016   0.001   0.016   0.021
  18  1.979   0.252   0.252   0.236   0.382   0.239   0.247   0.067   0.232
              0.020   0.015   0.001   0.014   0.021
  19  1.933   0.183   0.285   0.079   0.426   0.232   0.346   0.079   0.249
              0.015   0.004   0.000   0.015   0.019
  20  1.877   0.183   0.282   0.153   0.379   0.150   0.296   0.070   0.305
              0.022   0.011   0.001   0.012   0.013
  21  2.017   0.236   0.262   0.223   0.399   0.224   0.258   0.088   0.256
              0.021   0.014   0.001   0.014   0.021
  22  1.988   0.235   0.260   0.223   0.375   0.224   0.255   0.082   0.257
              0.021   0.017   0.001   0.017   0.022
  23  2.019   0.233   0.263   0.225   0.400   0.224   0.257   0.088   0.257
              0.021   0.015   0.001   0.015   0.021
  24  1.992   0.235   0.260   0.226   0.379   0.224   0.254   0.081   0.255
              0.021   0.016   0.001   0.016   0.021
  25  2.010   0.234   0.263   0.226   0.393   0.224   0.255   0.086   0.256
              0.021   0.015   0.001   0.015   0.021
  26  1.989   0.235   0.261   0.225   0.379   0.224   0.255   0.081   0.255
              0.021   0.016   0.001   0.016   0.021
  27  2.008   0.232   0.263   0.224   0.391   0.226   0.257   0.086   0.256
              0.021   0.015   0.001   0.014   0.021
  28  1.986   0.235   0.260   0.225   0.376   0.224   0.256   0.080   0.255
              0.021   0.015   0.001   0.016   0.021
  29  2.014   0.246   0.257   0.237   0.403   0.228   0.243   0.078   0.250
              0.021   0.013   0.001   0.014   0.021
  30  1.983   0.237   0.259   0.223   0.374   0.224   0.257   0.082   0.255
              0.021   0.015   0.002   0.015   0.021
  31  1.835   0.202   0.272   0.085   0.370   0.241   0.337   0.046   0.228
              0.014   0.004   0.001   0.014   0.019
  34  2.040   0.250   0.256   0.222   0.435   0.240   0.252   0.085   0.231
              0.020   0.014   0.001   0.013   0.021
  35  2.022   0.233   0.263   0.225   0.402   0.226   0.256   0.089   0.255
              0.021   0.015   0.001   0.015   0.021
  36  1.990   0.247   0.255   0.239   0.387   0.229   0.241   0.073   0.246
              0.021   0.015   0.001   0.016   0.020
  37  2.008   0.234   0.262   0.226   0.393   0.225   0.255   0.085   0.256
              0.021   0.015   0.001   0.015   0.021
  38  1.990   0.233   0.261   0.225   0.378   0.226   0.255   0.082   0.255
              0.021   0.016   0.001   0.016   0.021
  39  2.008   0.233   0.263   0.225   0.393   0.224   0.256   0.085   0.256
              0.021   0.015   0.001   0.015   0.021
  40  1.991   0.235   0.261   0.226   0.380   0.224   0.255   0.082   0.255
              0.021   0.016   0.001   0.016   0.021
  41  2.010   0.233   0.263   0.226   0.391   0.223   0.256   0.087   0.259
              0.021   0.015   0.001   0.015   0.021
  42  1.986   0.237   0.259   0.221   0.376   0.223   0.258   0.081   0.257
              0.021   0.015   0.002   0.015   0.021
  43  1.983   0.223   0.267   0.208   0.381   0.204   0.262   0.095   0.273
              0.021   0.014   0.001   0.013   0.022
  44  1.830   0.195   0.275   0.073   0.348   0.246   0.347   0.050   0.240
              0.015   0.005   0.001   0.016   0.020
  45  2.012   0.250   0.255   0.237   0.406   0.238   0.248   0.075   0.234
              0.020   0.015   0.001   0.013   0.021
  46  2.009   0.233   0.263   0.226   0.391   0.224   0.256   0.087   0.256
              0.021   0.015   0.001   0.015   0.021
  47  1.991   0.247   0.255   0.238   0.389   0.229   0.241   0.073   0.246
              0.022   0.015   0.001   0.015   0.020
  48  2.009   0.234   0.263   0.227   0.391   0.224   0.255   0.086   0.256
              0.021   0.015   0.001   0.015   0.021
  49  1.982   0.237   0.259   0.222   0.374   0.227   0.256   0.079   0.254
              0.021   0.016   0.001   0.015   0.021
  50  1.983   0.222   0.267   0.209   0.382   0.208   0.262   0.094   0.269
              0.021   0.014   0.001   0.013   0.021
  51  1.839   0.194   0.276   0.076   0.350   0.243   0.348   0.053   0.242
              0.015   0.005   0.001   0.016   0.020
  53  2.014   0.250   0.256   0.237   0.407   0.237   0.248   0.075   0.235
              0.020   0.015   0.001   0.013   0.021
  54  2.001   0.228   0.265   0.216   0.394   0.220   0.258   0.090   0.259
              0.020   0.014   0.001   0.013   0.022
  55  1.933   0.249   0.251   0.222   0.355   0.232   0.245   0.066   0.241
              0.022   0.014   0.001   0.016   0.020
  57  1.915   0.179   0.287   0.134   0.425   0.169   0.319   0.064   0.287
              0.022   0.008   0.001   0.007   0.012

mulliken: Qtot =      104.000

                     ====================================
                        Begin CG opt. move =      1
                     ====================================

superc: Internal auxiliary supercell:     3 x     1 x     1  =       3
superc: Number of atoms, orbitals, and projectors:    174   2070   2616

outcell: Unit cell vectors (Ang):
        8.970000    0.000000    0.000000
        0.000000   50.000000    0.000000
        0.000000    0.000000   20.000000

outcell: Cell vector modules (Ang)   :    8.970000   50.000000   20.000000
outcell: Cell angles (23,13,12) (deg):     90.0000     90.0000     90.0000
outcell: Cell volume (Ang**3)        :   8970.0000
<dSpData1D:S at geom step 1
  <sparsity:sparsity for geom step 1
    nrows_g=690 nrows=48 sparsity=.0529 nnzs=25203, refcount: 7>
  <dData1D:(new from dSpData1D) n=25203, refcount: 1>
refcount: 1>
new_DM -- step:     2
Re-using DM from previous geometries...
Number of DMs in history: 1
 DM extrapolation coefficients: 
1   1.00000
New DM after history re-use:
<dSpData2D:SpM extrapolated using coords
  <sparsity:sparsity for geom step 1
    nrows_g=690 nrows=48 sparsity=.0529 nnzs=25203, refcount: 8>
  <dData2D:(temp array for extrapolation) n=25203 m=2, refcount: 1>
refcount: 1>
No. of atoms with KB's overlaping orbs in proc 0. Max # of overlaps:      50     217
New grid distribution:   1
           1       1:   54    1:   80    1:   21
           2       1:   54    1:   80   22:   42
           3       1:   54    1:   80   43:   63
           4       1:   54    1:   80   64:   84
           5       1:   54    1:   80   85:  105
           6       1:   54    1:   80  106:  125
           7       1:   54   81:  160    1:   21
           8       1:   54   81:  160   22:   42
           9       1:   54   81:  160   43:   63
          10       1:   54   81:  160   64:   84
          11       1:   54   81:  160   85:  105
          12       1:   54   81:  160  106:  125
          13       1:   54  161:  240    1:   21
          14       1:   54  161:  240   22:   42
          15       1:   54  161:  240   43:   63
          16       1:   54  161:  240   64:   84
          17       1:   54  161:  240   85:  105
          18       1:   54  161:  240  106:  125
          19       1:   54  241:  320    1:   21
          20       1:   54  241:  320   22:   42
          21       1:   54  241:  320   43:   63
          22       1:   54  241:  320   64:   84
          23       1:   54  241:  320   85:  105
          24       1:   54  241:  320  106:  125

InitMesh: MESH =   108 x   640 x   250 =    17280000
InitMesh: (bp) =    54 x   320 x   125 =     2160000
InitMesh: Mesh cutoff (required, used) =   400.000   400.649 Ry
ExtMesh (bp) on 0 =   118 x   148 x    89 =     1554296
New grid distribution:   2
           1       1:   54    1:   47    1:   63
           2       1:   54   95:  109    1:   59
           3       1:   54   64:   71    1:   63
           4       1:   54   48:   63   64:   67
           5       1:   54    1:   47   64:  125
           6       1:   54   48:   63   68:  125
           7       1:   54  110:  117    1:   63
           8       1:   54   48:   63   60:   63
           9       1:   54   48:   63    1:   59
          10       1:   54   72:   86    1:   59
          11       1:   54   87:   94    1:   63
          12       1:   54   72:   86   60:   63
          13       1:   54  118:  320    1:   58
          14       1:   54   72:   86   68:  125
          15       1:   54   87:   94   64:  125
          16       1:   54   95:  109   60:   63
          17       1:   54  118:  320   68:  125
          18       1:   54   95:  109   68:  125
          19       1:   54   64:   71   64:  125
          20       1:   54   95:  109   64:   67
          21       1:   54  118:  320   59:   63
          22       1:   54  118:  320   64:   67
          23       1:   54  110:  117   64:  125
          24       1:   54   72:   86   64:   67
New grid distribution:   3
           1       1:   54    1:   34    1:   63
           2       1:   54   35:   55    1:   55
           3       1:   54   56:   66    1:   63
           4       1:   54   35:   55   64:   71
           5       1:   54    1:   34   64:  125
           6       1:   54   66:   86   64:   71
           7       1:   54   98:  118    1:   55
           8       1:   54  119:  129    1:   63
           9       1:   54  130:  320   57:   63
          10       1:   54   87:   97    1:   63
          11       1:   54   66:   86   72:  125
          12       1:   54   35:   55   56:   63
          13       1:   54  130:  320    1:   56
          14       1:   54   98:  118   72:  125
          15       1:   54   87:   97   64:  125
          16       1:   54   98:  118   56:   63
          17       1:   54  129:  320   71:  125
          18       1:   54   35:   55   72:  125
          19       1:   54   56:   65   64:  125
          20       1:   54   98:  118   64:   71
          21       1:   54   67:   86    1:   55
          22       1:   54  129:  320   64:   70
          23       1:   54  119:  128   64:  125
          24       1:   54   67:   86   56:   63
Setting up quadratic distribution...
ExtMesh (bp) on 0 =   118 x   115 x   131 =     1777670
PhiOnMesh: Number of (b)points on node 0 =               159894
PhiOnMesh: nlist on node 0 =               601307

        iscf     Eharris(eV)        E_KS(eV)     FreeEng(eV)     dDmax    Ef(eV) dHmax(eV)
   scf:    1    -7859.481764    -7859.788167    -7859.788659  0.025265 -3.361922  1.505341
   scf:    2    -7843.169756    -7854.701711    -7854.701781  0.082991 -3.326869  7.728137
   scf:    3    -7860.260347    -7860.054417    -7860.054619  0.080400 -3.354783  0.617059
   scf:    4    -7860.108597    -7860.090946    -7860.091115  0.002111 -3.351471  0.164088
   scf:    5    -7860.097743    -7860.095271    -7860.095441  0.001134 -3.353538  0.115948
   scf:    6    -7860.096517    -7860.096042    -7860.096207  0.000501 -3.355236  0.024853
   scf:    7    -7860.096228    -7860.096157    -7860.096321  0.000253 -3.355463  0.022754
   scf:    8    -7860.096200    -7860.096181    -7860.096344  0.000117 -3.355540  0.011861
   scf:    9    -7860.096218    -7860.096200    -7860.096362  0.000173 -3.355523  0.010218
   scf:   10    -7860.096243    -7860.096220    -7860.096380  0.000306 -3.355496  0.005391
   scf:   11    -7860.096225    -7860.096222    -7860.096382  0.000053 -3.355512  0.004902
   scf:   12    -7860.096236    -7860.096229    -7860.096387  0.000161 -3.355578  0.002764
   scf:   13    -7860.096234    -7860.096231    -7860.096389  0.000109 -3.355601  0.001287
   scf:   14    -7860.096233    -7860.096232    -7860.096389  0.000043 -3.355604  0.000929
   scf:   15    -7860.096233    -7860.096232    -7860.096390  0.000038 -3.355603  0.000672
   scf:   16    -7860.096233    -7860.096233    -7860.096390  0.000024 -3.355602  0.000451
   scf:   17    -7860.096233    -7860.096233    -7860.096390  0.000013 -3.355603  0.000290
   scf:   18    -7860.096233    -7860.096233    -7860.096390  0.000004 -3.355603  0.000215

SCF Convergence by DM+H criterion
max |DM_out - DM_in|         :     0.0000036435
max |H_out - H_in|      (eV) :     0.0002149187
SCF cycle converged after 18 iterations

Using DM_out to compute the final energy and forces
No. of atoms with KB's overlaping orbs in proc 0. Max # of overlaps:      50     217

siesta: E_KS(eV) =            -7860.0962

siesta: Total spin polarization (Qup-Qdown) =    0.000041

siesta: Atomic forces (eV/Ang):
----------------------------------------
   Tot   -0.010245    0.012363    0.000000
----------------------------------------
   Max    0.975583
   Res    0.320163    sqrt( Sum f_i^2 / 3N )
----------------------------------------
   Max    0.975583    constrained

Stress-tensor-Voigt (kbar):       -3.01       -7.30        0.01       -0.19        0.00        0.00
(Free)E + p*V (eV/cell)    -7840.8758
Target enthalpy (eV/cell)    -7860.0964
 
mulliken: Atomic and Orbital Populations:

mulliken: Spin UP 

Species: H.mpn               
Atom  Qatom  Qorb
               1s      1s      1Ppy    1Ppz    1Ppx    
   1  0.620   0.418   0.152   0.022   0.015   0.012
   3  0.622   0.429   0.145   0.022   0.015   0.011
   9  0.621   0.431   0.141   0.021   0.016   0.012
  32  0.618   0.420   0.147   0.017   0.016   0.017
  33  0.619   0.419   0.147   0.017   0.018   0.018
  52  0.618   0.430   0.137   0.021   0.018   0.012
  56  0.619   0.423   0.144   0.022   0.020   0.011
  58  0.617   0.412   0.152   0.022   0.020   0.012

Species: C.mpn               
Atom  Qatom  Qorb
               2s      2s      2py     2pz     2px     2py     2pz     2px     
               2Pdxy   2Pdyz   2Pdz2   2Pdxz   2Pdx2-y2
   2  2.003   0.243   0.259   0.225   0.405   0.229   0.249   0.080   0.246
              0.020   0.013   0.001   0.012   0.021
   4  1.834   0.195   0.275   0.075   0.352   0.246   0.349   0.050   0.237
              0.015   0.004   0.001   0.015   0.020
   5  1.983   0.225   0.266   0.209   0.383   0.210   0.261   0.093   0.266
              0.021   0.014   0.001   0.013   0.021
   6  1.981   0.247   0.254   0.233   0.381   0.229   0.245   0.072   0.247
              0.021   0.015   0.001   0.015   0.021
   7  2.010   0.236   0.262   0.230   0.394   0.226   0.253   0.085   0.253
              0.021   0.015   0.001   0.015   0.021
   8  2.010   0.245   0.257   0.235   0.402   0.232   0.247   0.077   0.244
              0.021   0.014   0.001   0.014   0.021
  10  1.832   0.194   0.276   0.070   0.351   0.247   0.350   0.049   0.239
              0.015   0.005   0.001   0.015   0.020
  11  1.982   0.226   0.265   0.208   0.382   0.206   0.261   0.092   0.270
              0.021   0.014   0.001   0.013   0.021
  12  1.988   0.237   0.259   0.221   0.378   0.224   0.258   0.081   0.256
              0.021   0.015   0.001   0.015   0.021
  13  2.011   0.233   0.263   0.225   0.391   0.224   0.257   0.087   0.257
              0.021   0.015   0.001   0.015   0.021
  14  1.989   0.237   0.260   0.228   0.380   0.225   0.253   0.080   0.254
              0.021   0.015   0.001   0.015   0.021
  15  2.008   0.234   0.263   0.226   0.392   0.225   0.255   0.085   0.255
              0.021   0.015   0.001   0.015   0.021
  16  1.990   0.244   0.256   0.236   0.386   0.227   0.244   0.075   0.249
              0.021   0.015   0.001   0.015   0.021
  17  2.009   0.236   0.261   0.229   0.395   0.226   0.253   0.084   0.252
              0.021   0.015   0.001   0.014   0.021
  18  2.025   0.246   0.258   0.235   0.413   0.232   0.247   0.080   0.243
              0.021   0.014   0.001   0.014   0.021
  19  1.852   0.185   0.280   0.075   0.369   0.233   0.348   0.061   0.244
              0.015   0.004   0.001   0.016   0.019
  20  1.911   0.183   0.285   0.155   0.412   0.153   0.297   0.072   0.304
              0.022   0.008   0.001   0.009   0.013
  21  1.982   0.238   0.258   0.223   0.374   0.224   0.257   0.080   0.254
              0.021   0.015   0.002   0.015   0.021
  22  2.011   0.236   0.262   0.227   0.395   0.224   0.254   0.085   0.258
              0.021   0.014   0.001   0.014   0.022
  23  1.983   0.235   0.260   0.225   0.374   0.224   0.256   0.079   0.255
              0.021   0.016   0.001   0.016   0.021
  24  2.009   0.234   0.263   0.226   0.393   0.225   0.255   0.085   0.256
              0.021   0.015   0.001   0.014   0.021
  25  1.989   0.235   0.261   0.226   0.379   0.225   0.254   0.081   0.255
              0.021   0.016   0.001   0.016   0.021
  26  2.011   0.234   0.263   0.226   0.394   0.225   0.256   0.086   0.256
              0.021   0.015   0.001   0.015   0.021
  27  1.991   0.237   0.260   0.228   0.381   0.226   0.252   0.080   0.253
              0.021   0.016   0.001   0.016   0.021
  28  2.016   0.233   0.263   0.225   0.397   0.225   0.257   0.087   0.255
              0.021   0.015   0.001   0.015   0.021
  29  1.989   0.247   0.255   0.234   0.383   0.228   0.244   0.074   0.249
              0.021   0.016   0.001   0.016   0.021
  30  2.018   0.239   0.261   0.225   0.402   0.226   0.256   0.086   0.252
              0.021   0.014   0.001   0.014   0.021
  31  1.937   0.191   0.282   0.090   0.437   0.232   0.336   0.073   0.245
              0.016   0.004   0.000   0.014   0.019
  34  1.936   0.249   0.250   0.221   0.357   0.234   0.249   0.066   0.238
              0.021   0.014   0.001   0.015   0.021
  35  1.978   0.239   0.258   0.228   0.374   0.227   0.253   0.076   0.250
              0.021   0.016   0.001   0.015   0.021
  36  2.012   0.243   0.259   0.236   0.402   0.228   0.245   0.079   0.250
              0.021   0.014   0.001   0.014   0.021
  37  1.991   0.235   0.261   0.226   0.380   0.225   0.255   0.081   0.254
              0.021   0.016   0.001   0.016   0.021
  38  2.009   0.235   0.262   0.228   0.394   0.226   0.253   0.084   0.254
              0.021   0.015   0.001   0.015   0.021
  39  1.992   0.235   0.261   0.225   0.380   0.225   0.255   0.082   0.255
              0.021   0.016   0.001   0.016   0.021
  40  2.010   0.234   0.262   0.225   0.393   0.225   0.256   0.086   0.255
              0.021   0.015   0.001   0.015   0.021
  41  1.989   0.234   0.261   0.226   0.376   0.224   0.255   0.082   0.256
              0.021   0.016   0.001   0.016   0.021
  42  2.012   0.235   0.262   0.221   0.395   0.224   0.259   0.087   0.257
              0.021   0.014   0.001   0.015   0.021
  43  1.954   0.233   0.259   0.215   0.361   0.207   0.254   0.083   0.264
              0.021   0.014   0.001   0.021   0.021
  44  1.990   0.190   0.286   0.074   0.468   0.249   0.351   0.078   0.240
              0.015   0.004   0.000   0.015   0.020
  45  1.992   0.247   0.255   0.235   0.389   0.232   0.246   0.073   0.242
              0.021   0.015   0.001   0.015   0.021
  46  1.991   0.237   0.260   0.228   0.381   0.226   0.253   0.080   0.251
              0.021   0.016   0.001   0.015   0.021
  47  2.010   0.243   0.258   0.236   0.401   0.228   0.245   0.079   0.249
              0.021   0.014   0.001   0.014   0.021
  48  1.990   0.235   0.261   0.227   0.377   0.224   0.254   0.082   0.255
              0.021   0.015   0.001   0.016   0.021
  49  2.019   0.238   0.261   0.225   0.403   0.227   0.255   0.085   0.253
              0.021   0.014   0.001   0.015   0.021
  50  1.954   0.228   0.261   0.210   0.357   0.212   0.258   0.086   0.261
              0.021   0.016   0.001   0.021   0.021
  51  1.990   0.190   0.286   0.077   0.464   0.247   0.352   0.079   0.241
              0.015   0.004   0.000   0.015   0.020
  53  1.990   0.247   0.255   0.236   0.387   0.232   0.245   0.072   0.242
              0.021   0.015   0.001   0.015   0.021
  54  1.968   0.236   0.258   0.219   0.370   0.225   0.253   0.079   0.249
              0.020   0.017   0.001   0.019   0.022
  55  2.038   0.242   0.260   0.221   0.429   0.230   0.250   0.089   0.246
              0.021   0.014   0.001   0.015   0.020
  57  1.877   0.189   0.279   0.147   0.383   0.163   0.300   0.066   0.292
              0.022   0.011   0.001   0.011   0.013

mulliken: Qtot =      104.000

mulliken: Spin DOWN 

Species: H.mpn               
Atom  Qatom  Qorb
               1s      1s      1Ppy    1Ppz    1Ppx    
   1  0.618   0.412   0.152   0.022   0.020   0.012
   3  0.619   0.423   0.144   0.022   0.020   0.011
   9  0.620   0.428   0.140   0.021   0.019   0.012
  32  0.617   0.418   0.147   0.017   0.018   0.017
  33  0.619   0.421   0.148   0.017   0.017   0.018
  52  0.620   0.434   0.137   0.021   0.016   0.012
  56  0.622   0.429   0.144   0.022   0.015   0.011
  58  0.620   0.418   0.153   0.022   0.015   0.012

Species: C.mpn               
Atom  Qatom  Qorb
               2s      2s      2py     2pz     2px     2py     2pz     2px     
               2Pdxy   2Pdyz   2Pdz2   2Pdxz   2Pdx2-y2
   2  1.969   0.247   0.253   0.227   0.376   0.230   0.245   0.072   0.241
              0.020   0.016   0.001   0.018   0.021
   4  1.990   0.192   0.284   0.078   0.467   0.248   0.350   0.077   0.239
              0.015   0.004   0.000   0.015   0.020
   5  1.954   0.228   0.260   0.211   0.358   0.212   0.258   0.086   0.260
              0.021   0.016   0.001   0.021   0.021
   6  2.022   0.245   0.258   0.233   0.411   0.230   0.246   0.080   0.248
              0.021   0.014   0.001   0.014   0.021
   7  1.989   0.237   0.259   0.230   0.379   0.226   0.252   0.080   0.252
              0.021   0.015   0.001   0.016   0.021
   8  1.991   0.246   0.255   0.235   0.388   0.232   0.246   0.073   0.243
              0.021   0.015   0.001   0.015   0.021
  10  1.989   0.190   0.286   0.074   0.466   0.249   0.352   0.078   0.241
              0.015   0.004   0.000   0.015   0.020
  11  1.954   0.229   0.260   0.209   0.358   0.207   0.259   0.086   0.265
              0.021   0.015   0.001   0.021   0.021
  12  2.011   0.235   0.262   0.221   0.395   0.224   0.259   0.087   0.257
              0.021   0.014   0.001   0.015   0.021
  13  1.989   0.234   0.261   0.225   0.376   0.224   0.256   0.082   0.256
              0.021   0.016   0.001   0.016   0.021
  14  2.011   0.236   0.262   0.228   0.395   0.225   0.254   0.085   0.254
              0.021   0.015   0.001   0.015   0.021
  15  1.992   0.235   0.261   0.226   0.380   0.225   0.255   0.082   0.254
              0.021   0.016   0.001   0.016   0.021
  16  2.011   0.243   0.258   0.236   0.401   0.227   0.245   0.079   0.250
              0.021   0.014   0.001   0.015   0.021
  17  1.990   0.237   0.259   0.229   0.382   0.226   0.252   0.080   0.251
              0.021   0.016   0.001   0.015   0.021
  18  1.979   0.248   0.254   0.235   0.380   0.232   0.246   0.070   0.242
              0.021   0.015   0.001   0.015   0.021
  19  1.932   0.183   0.285   0.077   0.429   0.234   0.349   0.076   0.246
              0.015   0.004   0.000   0.014   0.019
  20  1.875   0.185   0.281   0.154   0.382   0.152   0.295   0.066   0.302
              0.022   0.011   0.001   0.011   0.013
  21  2.018   0.236   0.262   0.223   0.400   0.224   0.258   0.088   0.255
              0.021   0.014   0.001   0.014   0.021
  22  1.988   0.238   0.258   0.227   0.377   0.224   0.252   0.079   0.255
              0.021   0.016   0.001   0.017   0.022
  23  2.017   0.233   0.263   0.225   0.398   0.224   0.257   0.088   0.256
              0.021   0.015   0.001   0.015   0.021
  24  1.991   0.235   0.260   0.226   0.380   0.225   0.254   0.081   0.254
              0.021   0.016   0.001   0.016   0.021
  25  2.010   0.234   0.263   0.226   0.394   0.225   0.255   0.086   0.255
              0.021   0.015   0.001   0.015   0.021
  26  1.990   0.235   0.261   0.226   0.379   0.225   0.255   0.081   0.255
              0.021   0.016   0.001   0.016   0.021
  27  2.009   0.235   0.262   0.228   0.394   0.226   0.253   0.084   0.254
              0.021   0.015   0.001   0.014   0.021
  28  1.984   0.235   0.260   0.225   0.375   0.225   0.256   0.080   0.254
              0.021   0.016   0.001   0.016   0.021
  29  2.013   0.244   0.258   0.234   0.402   0.227   0.246   0.079   0.252
              0.021   0.013   0.001   0.013   0.021
  30  1.982   0.241   0.257   0.225   0.376   0.226   0.255   0.078   0.251
              0.021   0.015   0.002   0.015   0.021
  31  1.850   0.194   0.276   0.088   0.371   0.231   0.335   0.057   0.243
              0.016   0.004   0.001   0.015   0.019
  34  2.038   0.245   0.258   0.221   0.431   0.234   0.251   0.087   0.240
              0.021   0.014   0.001   0.014   0.021
  35  2.023   0.237   0.262   0.228   0.406   0.227   0.254   0.086   0.251
              0.021   0.015   0.001   0.015   0.021
  36  1.990   0.245   0.256   0.236   0.385   0.228   0.244   0.074   0.248
              0.021   0.015   0.001   0.016   0.021
  37  2.009   0.234   0.262   0.226   0.393   0.225   0.255   0.085   0.255
              0.021   0.015   0.001   0.015   0.021
  38  1.990   0.236   0.260   0.228   0.380   0.226   0.252   0.080   0.253
              0.021   0.015   0.001   0.016   0.021
  39  2.008   0.233   0.263   0.225   0.392   0.225   0.256   0.085   0.256
              0.021   0.015   0.001   0.015   0.021
  40  1.990   0.235   0.260   0.225   0.379   0.225   0.255   0.081   0.254
              0.021   0.016   0.001   0.015   0.021
  41  2.010   0.233   0.263   0.226   0.391   0.224   0.256   0.087   0.258
              0.021   0.015   0.001   0.015   0.021
  42  1.987   0.237   0.259   0.221   0.377   0.223   0.258   0.081   0.256
              0.021   0.015   0.002   0.015   0.021
  43  1.984   0.229   0.264   0.214   0.385   0.205   0.257   0.090   0.269
              0.021   0.014   0.001   0.013   0.021
  44  1.832   0.194   0.276   0.071   0.352   0.247   0.350   0.049   0.238
              0.015   0.005   0.001   0.015   0.020
  45  2.011   0.246   0.257   0.235   0.403   0.232   0.247   0.077   0.243
              0.021   0.014   0.001   0.014   0.021
  46  2.009   0.236   0.261   0.228   0.394   0.226   0.254   0.084   0.252
              0.021   0.015   0.001   0.015   0.021
  47  1.992   0.245   0.256   0.236   0.387   0.228   0.244   0.075   0.248
              0.021   0.015   0.001   0.015   0.021
  48  2.009   0.234   0.263   0.227   0.392   0.225   0.255   0.086   0.256
              0.021   0.015   0.001   0.015   0.021
  49  1.982   0.240   0.258   0.225   0.376   0.227   0.253   0.077   0.252
              0.021   0.016   0.001   0.015   0.021
  50  1.983   0.224   0.266   0.209   0.383   0.210   0.261   0.093   0.267
              0.021   0.014   0.001   0.013   0.021
  51  1.835   0.193   0.276   0.073   0.350   0.246   0.351   0.051   0.239
              0.015   0.005   0.001   0.016   0.020
  53  2.012   0.245   0.258   0.236   0.404   0.232   0.247   0.077   0.244
              0.021   0.015   0.001   0.014   0.021
  54  2.001   0.233   0.263   0.218   0.398   0.224   0.257   0.087   0.254
              0.020   0.014   0.001   0.013   0.022
  55  1.935   0.246   0.252   0.222   0.354   0.230   0.248   0.067   0.244
              0.021   0.014   0.001   0.016   0.020
  57  1.915   0.187   0.283   0.147   0.413   0.163   0.302   0.072   0.294
              0.022   0.008   0.001   0.009   0.013

mulliken: Qtot =      104.000

                     ====================================
                        Begin CG opt. move =      2
                     ====================================

superc: Internal auxiliary supercell:     3 x     1 x     1  =       3
superc: Number of atoms, orbitals, and projectors:    174   2070   2616

outcell: Unit cell vectors (Ang):
        8.970000    0.000000    0.000000
        0.000000   50.000000    0.000000
        0.000000    0.000000   20.000000

outcell: Cell vector modules (Ang)   :    8.970000   50.000000   20.000000
outcell: Cell angles (23,13,12) (deg):     90.0000     90.0000     90.0000
outcell: Cell volume (Ang**3)        :   8970.0000
<dSpData1D:S at geom step 2
  <sparsity:sparsity for geom step 2
    nrows_g=690 nrows=48 sparsity=.0529 nnzs=25203, refcount: 7>
  <dData1D:(new from dSpData1D) n=25203, refcount: 1>
refcount: 1>
new_DM -- step:     3
Re-using DM from previous geometries...
Number of DMs in history: 1
 DM extrapolation coefficients: 
1   1.00000
New DM after history re-use:
<dSpData2D:SpM extrapolated using coords
  <sparsity:sparsity for geom step 2
    nrows_g=690 nrows=48 sparsity=.0529 nnzs=25203, refcount: 8>
  <dData2D:(temp array for extrapolation) n=25203 m=2, refcount: 1>
refcount: 1>
No. of atoms with KB's overlaping orbs in proc 0. Max # of overlaps:      50     217
New grid distribution:   1
           1       1:   54    1:   80    1:   21
           2       1:   54    1:   80   22:   42
           3       1:   54    1:   80   43:   63
           4       1:   54    1:   80   64:   84
           5       1:   54    1:   80   85:  105
           6       1:   54    1:   80  106:  125
           7       1:   54   81:  160    1:   21
           8       1:   54   81:  160   22:   42
           9       1:   54   81:  160   43:   63
          10       1:   54   81:  160   64:   84
          11       1:   54   81:  160   85:  105
          12       1:   54   81:  160  106:  125
          13       1:   54  161:  240    1:   21
          14       1:   54  161:  240   22:   42
          15       1:   54  161:  240   43:   63
          16       1:   54  161:  240   64:   84
          17       1:   54  161:  240   85:  105
          18       1:   54  161:  240  106:  125
          19       1:   54  241:  320    1:   21
          20       1:   54  241:  320   22:   42
          21       1:   54  241:  320   43:   63
          22       1:   54  241:  320   64:   84
          23       1:   54  241:  320   85:  105
          24       1:   54  241:  320  106:  125

InitMesh: MESH =   108 x   640 x   250 =    17280000
InitMesh: (bp) =    54 x   320 x   125 =     2160000
InitMesh: Mesh cutoff (required, used) =   400.000   400.649 Ry
ExtMesh (bp) on 0 =   118 x   148 x    89 =     1554296
New grid distribution:   2
           1       1:   54    1:   47    1:   63
           2       1:   54   95:  109    1:   59
           3       1:   54   64:   71    1:   63
           4       1:   54   48:   63   64:   67
           5       1:   54    1:   47   64:  125
           6       1:   54   48:   63   68:  125
           7       1:   54  110:  117    1:   63
           8       1:   54   48:   63   60:   63
           9       1:   54   48:   63    1:   59
          10       1:   54   72:   86    1:   59
          11       1:   54   87:   94    1:   63
          12       1:   54   72:   86   60:   63
          13       1:   54  118:  320    1:   58
          14       1:   54   72:   86   68:  125
          15       1:   54   87:   94   64:  125
          16       1:   54   95:  109   60:   63
          17       1:   54  118:  320   68:  125
          18       1:   54   95:  109   68:  125
          19       1:   54   64:   71   64:  125
          20       1:   54   95:  109   64:   67
          21       1:   54  118:  320   59:   63
          22       1:   54  118:  320   64:   67
          23       1:   54  110:  117   64:  125
          24       1:   54   72:   86   64:   67
New grid distribution:   3
           1       1:   54    1:   34    1:   63
           2       1:   54   35:   55    1:   55
           3       1:   54   56:   66    1:   63
           4       1:   54   35:   55   64:   71
           5       1:   54    1:   34   64:  125
           6       1:   54   66:   86   64:   71
           7       1:   54   98:  118    1:   55
           8       1:   54  119:  129    1:   63
           9       1:   54  130:  320   57:   63
          10       1:   54   87:   97    1:   63
          11       1:   54   66:   86   72:  125
          12       1:   54   35:   55   56:   63
          13       1:   54  130:  320    1:   56
          14       1:   54   98:  118   72:  125
          15       1:   54   87:   97   64:  125
          16       1:   54   98:  118   56:   63
          17       1:   54  129:  320   71:  125
          18       1:   54   35:   55   72:  125
          19       1:   54   56:   65   64:  125
          20       1:   54   98:  118   64:   71
          21       1:   54   67:   86    1:   55
          22       1:   54  129:  320   64:   70
          23       1:   54  119:  128   64:  125
          24       1:   54   67:   86   56:   63
Setting up quadratic distribution...
ExtMesh (bp) on 0 =   118 x   115 x   131 =     1777670
PhiOnMesh: Number of (b)points on node 0 =               159894
PhiOnMesh: nlist on node 0 =               602437

        iscf     Eharris(eV)        E_KS(eV)     FreeEng(eV)     dDmax    Ef(eV) dHmax(eV)
   scf:    1    -7857.182227    -7858.648207    -7858.648685  0.039145 -3.369968  2.119917
   scf:    2    -7832.469563    -7850.829307    -7850.829397  0.102321 -3.316012  9.138351
   scf:    3    -7859.867668    -7859.255333    -7859.255522  0.098828 -3.358516  0.695709
   scf:    4    -7859.342065    -7859.310960    -7859.311119  0.002131 -3.358951  0.268120
   scf:    5    -7859.327189    -7859.321474    -7859.321637  0.001519 -3.364201  0.194874
   scf:    6    -7859.324147    -7859.323231    -7859.323385  0.001079 -3.363013  0.042939
   scf:    7    -7859.323585    -7859.323507    -7859.323662  0.000544 -3.364042  0.040060
   scf:    8    -7859.323660    -7859.323604    -7859.323757  0.000264 -3.363593  0.015385
   scf:    9    -7859.323679    -7859.323643    -7859.323794  0.000203 -3.363372  0.015288
   scf:   10    -7859.323731    -7859.323684    -7859.323834  0.000400 -3.363310  0.008051
   scf:   11    -7859.323697    -7859.323691    -7859.323839  0.000077 -3.363309  0.006813
   scf:   12    -7859.323722    -7859.323705    -7859.323852  0.000237 -3.363404  0.004120
   scf:   13    -7859.323717    -7859.323711    -7859.323857  0.000147 -3.363464  0.002373
   scf:   14    -7859.323715    -7859.323713    -7859.323859  0.000075 -3.363479  0.001476
   scf:   15    -7859.323715    -7859.323714    -7859.323859  0.000067 -3.363476  0.000820
   scf:   16    -7859.323716    -7859.323715    -7859.323860  0.000053 -3.363461  0.000482
   scf:   17    -7859.323715    -7859.323715    -7859.323860  0.000013 -3.363456  0.000389
   scf:   18    -7859.323715    -7859.323715    -7859.323860  0.000013 -3.363452  0.000264
   scf:   19    -7859.323716    -7859.323715    -7859.323860  0.000016 -3.363447  0.000154
   scf:   20    -7859.323716    -7859.323715    -7859.323860  0.000005 -3.363445  0.000123

SCF Convergence by DM+H criterion
max |DM_out - DM_in|         :     0.0000047466
max |H_out - H_in|      (eV) :     0.0001225859
SCF cycle converged after 20 iterations

Using DM_out to compute the final energy and forces
No. of atoms with KB's overlaping orbs in proc 0. Max # of overlaps:      50     217

siesta: E_KS(eV) =            -7859.3237

siesta: Total spin polarization (Qup-Qdown) =   -0.000252

siesta: Atomic forces (eV/Ang):
----------------------------------------
   Tot   -0.005448    0.002434   -0.000000
----------------------------------------
   Max    8.569703
   Res    1.157047    sqrt( Sum f_i^2 / 3N )
----------------------------------------
   Max    8.569703    constrained

Stress-tensor-Voigt (kbar):       -3.59       -7.05        0.01       -0.63        0.00       -0.00
(Free)E + p*V (eV/cell)    -7839.4813
Target enthalpy (eV/cell)    -7859.3239
 
mulliken: Atomic and Orbital Populations:

mulliken: Spin UP 

Species: H.mpn               
Atom  Qatom  Qorb
               1s      1s      1Ppy    1Ppz    1Ppx    
   1  0.621   0.416   0.156   0.022   0.015   0.012
   3  0.623   0.427   0.147   0.022   0.016   0.011
   9  0.622   0.429   0.143   0.021   0.017   0.012
  32  0.608   0.435   0.127   0.016   0.013   0.017
  33  0.621   0.418   0.150   0.017   0.018   0.018
  52  0.617   0.434   0.133   0.021   0.017   0.012
  56  0.621   0.422   0.146   0.022   0.021   0.011
  58  0.619   0.410   0.154   0.022   0.021   0.012

Species: C.mpn               
Atom  Qatom  Qorb
               2s      2s      2py     2pz     2px     2py     2pz     2px     
               2Pdxy   2Pdyz   2Pdz2   2Pdxz   2Pdx2-y2
   2  2.004   0.236   0.261   0.223   0.403   0.224   0.247   0.084   0.257
              0.021   0.013   0.001   0.013   0.021
   4  1.819   0.198   0.274   0.074   0.348   0.250   0.349   0.042   0.230
              0.014   0.004   0.001   0.015   0.020
   5  1.985   0.227   0.265   0.209   0.386   0.215   0.261   0.090   0.261
              0.021   0.014   0.001   0.012   0.021
   6  1.985   0.242   0.256   0.229   0.379   0.228   0.250   0.077   0.250
              0.020   0.015   0.001   0.015   0.022
   7  2.011   0.242   0.259   0.234   0.399   0.229   0.250   0.080   0.247
              0.021   0.015   0.001   0.014   0.021
   8  2.009   0.238   0.261   0.232   0.395   0.224   0.246   0.083   0.258
              0.021   0.014   0.001   0.015   0.021
  10  1.830   0.192   0.277   0.066   0.352   0.250   0.355   0.048   0.235
              0.015   0.004   0.001   0.015   0.020
  11  1.983   0.228   0.264   0.207   0.384   0.210   0.262   0.091   0.266
              0.021   0.014   0.001   0.013   0.021
  12  1.987   0.237   0.259   0.221   0.378   0.225   0.258   0.081   0.255
              0.021   0.015   0.001   0.015   0.021
  13  2.010   0.233   0.263   0.225   0.391   0.225   0.257   0.087   0.257
              0.021   0.015   0.001   0.015   0.021
[...]
         29.87  30.30  30.77  31.11  31.41  31.76  31.82  32.22  32.26  32.27
         32.71  32.81  33.11  33.28  33.37  33.40  33.44  33.87  34.15  34.24
         34.64  34.94  35.45  35.61  35.76  35.87  35.91  35.97  35.98  36.20
         36.29  36.37  36.40  36.47  36.51  36.64  37.16  37.17  37.24  37.34
         37.68  37.94  38.14  38.26  38.60  38.69  38.69  38.80  39.74  40.01
         40.34  40.68  41.11  41.14  41.50  41.67  42.12  42.42  43.05  43.10
         43.58  43.69  44.19  44.39  44.41  44.51  44.59  44.70  44.83  45.15
         45.31  45.64  45.72  45.82  46.27  46.39  46.47  46.83  47.10  47.15
         47.47  47.56  47.57  47.59  47.85  48.20  48.24  48.40  48.41  49.20
         49.58  49.61  49.73  49.98  50.04  50.04  50.11  50.29  50.57  50.64
         50.70  51.02  51.04  51.54  51.73  51.79  51.92  52.13  52.28  52.51
         52.70  52.76  53.16  53.52  53.71  53.77  53.89  53.90  54.07  54.50
         54.77  54.82  55.09  55.11  55.24  55.42  55.73  55.74  55.87  56.17
         56.39  56.47  56.81  57.01  57.03  57.41  57.55  57.55  57.80  58.03
         58.21  58.61  58.61  58.66  59.00  59.36  59.48  59.64  59.70  59.73
         59.91  60.07  60.17  60.38  60.53  60.77  61.14  61.23  61.23  61.26
         61.58  61.89  61.96  62.47  62.49  62.52  62.78  62.79  63.09  63.47
         63.86  63.95  64.44  64.60  65.47  65.57  65.61  66.51  66.76  66.77
         68.55  69.31  69.99  70.37  71.53  71.60  71.89  72.32  72.36  72.61
         72.63  73.46  73.48  74.22  74.42  74.63  74.80  74.89  74.98  75.06
         75.23  75.45  75.85  75.92  75.97  76.18  76.20  76.34  76.49  76.49
         76.99  77.25  77.40  77.58  78.59  78.70  78.76  78.93  79.68  79.88
         80.48  80.53  80.59  80.72  81.47  81.57  81.79  81.96  82.51  82.73
         83.01  83.34  83.45  83.54  83.84  83.87  84.01  84.46  84.94  85.14
         86.51  87.01  87.07  88.54  88.78  89.43  90.24  91.65  91.93  93.61
         94.17  95.92  96.28  96.64  96.94  98.94  99.79 100.38 101.46 102.38
        102.48 104.60 105.43 105.53 105.86 106.08 106.89 106.97 107.62 107.74
        108.51 110.25 111.69 111.83 115.30 116.05 116.42 118.30 121.24 121.88
        122.25 124.80 125.01 125.51 130.02 133.16 133.66 134.52 137.54 137.88
        138.42 139.00 139.85 141.09 142.15 144.35 144.67 144.81 145.34 145.86
        147.36 149.91 151.88 156.94 159.14 164.86 165.10 167.95 168.62 169.85
        171.10 172.33 172.64 173.14 174.91 175.45 181.53 182.47 182.89 186.19
  51  1 -22.06 -22.03 -21.76 -21.68 -21.29 -21.14 -20.64 -20.41 -19.82 -19.55
        -19.47 -19.43 -19.15 -19.14 -18.87 -18.69 -18.61 -18.50 -18.03 -17.96
        -17.82 -17.51 -17.37 -16.76 -16.65 -15.98 -15.69 -15.34 -15.12 -14.94
        -14.63 -14.58 -14.44 -14.20 -14.16 -13.83 -13.57 -13.57 -13.16 -13.16
        -13.03 -12.98 -12.83 -12.56 -12.53 -12.39 -11.68 -11.49 -11.47 -11.40
        -10.87 -10.78 -10.60 -10.38 -10.35 -10.21 -10.14 -10.12 -10.09 -10.06
         -9.79  -9.74  -9.71  -9.63  -9.57  -9.52  -9.50  -9.34  -9.33  -9.25
         -9.25  -9.10  -9.05  -8.79  -8.70  -8.53  -8.53  -8.37  -8.28  -8.06
         -7.92  -7.86  -7.80  -7.65  -7.45  -7.44  -7.32  -7.18  -7.16  -7.16
         -7.12  -6.86  -6.84  -6.70  -6.38  -6.32  -6.21  -5.92  -5.75  -5.74
         -5.15  -5.11  -4.35  -4.30  -2.34  -2.29  -1.64  -1.48  -1.16  -1.09
         -0.99  -0.32  -0.28  -0.21  -0.01   0.41   0.43   0.87   0.88   1.17
          1.42   2.45   2.47   2.68   2.95   2.98   3.02   3.95   4.08   4.14
          4.20   4.34   4.41   4.44   4.54   4.63   4.94   5.01   5.11   5.17
          5.20   5.25   5.48   5.56   5.57   5.71   5.80   5.93   6.12   6.21
          6.35   6.50   6.53   6.58   6.64   6.78   7.08   7.11   7.43   7.84
          7.85   7.90   8.22   8.49   8.83   8.86   9.14   9.17   9.32   9.32
          9.37   9.40   9.45   9.60   9.62   9.71   9.79   9.82   9.91   9.93
         10.04  10.23  10.25  10.32  10.40  10.65  10.68  10.73  10.75  10.82
         10.89  10.93  11.06  11.20  11.21  11.22  11.47  11.57  11.67  11.77
         11.82  11.90  11.94  12.01  12.07  12.30  12.34  12.38  12.39  12.51
         12.52  12.61  12.63  12.73  12.84  12.86  13.00  13.03  13.07  13.08
         13.25  13.28  13.29  13.29  13.34  13.37  13.38  13.42  13.44  13.50
         13.55  13.58  13.64  13.68  13.69  13.78  13.86  13.86  13.87  13.94
         13.97  14.00  14.18  14.19  14.52  14.52  14.57  14.65  14.77  14.78
         14.95  15.05  15.06  15.15  15.24  15.73  16.04  16.21  16.27  16.36
         16.42  16.43  16.74  16.75  17.75  17.76  17.89  17.93  18.13  18.22
         18.59  18.61  18.61  18.80  18.81  18.84  18.93  18.98  19.02  19.09
         19.18  19.32  19.32  19.42  19.58  19.66  19.72  19.76  19.89  19.90
         20.17  20.28  20.31  20.38  20.41  20.54  20.67  20.87  20.92  20.93
         20.99  21.06  21.11  21.19  21.21  21.35  21.52  21.52  21.54  21.74
         21.76  21.80  21.83  21.93  21.97  21.98  21.98  22.07  22.25  22.26
         22.27  22.47  22.54  22.61  22.68  22.71  22.78  22.79  22.88  22.95
         22.99  23.17  23.30  23.35  23.47  23.50  23.70  23.71  23.85  23.94
         23.96  24.02  24.22  24.31  24.33  24.41  24.71  24.82  24.89  25.23
         25.24  25.40  25.63  26.03  26.18  26.30  26.35  26.45  26.59  26.62
         26.76  26.91  27.22  27.66  28.00  28.28  28.77  28.81  29.05  29.49
         29.87  30.30  30.77  31.11  31.40  31.76  31.82  32.22  32.26  32.27
         32.73  32.79  33.11  33.28  33.37  33.41  33.42  33.87  34.15  34.23
         34.64  34.94  35.46  35.61  35.76  35.90  35.91  35.93  35.97  36.21
         36.29  36.37  36.40  36.47  36.50  36.64  37.16  37.17  37.28  37.31
         37.68  37.94  38.14  38.26  38.60  38.69  38.69  38.79  39.73  40.01
         40.34  40.68  41.12  41.13  41.50  41.67  42.12  42.42  43.07  43.08
         43.58  43.68  44.19  44.40  44.41  44.51  44.59  44.69  44.83  45.15
         45.31  45.64  45.72  45.82  46.26  46.40  46.47  46.83  47.09  47.15
         47.51  47.53  47.57  47.58  47.86  48.21  48.24  48.39  48.40  49.21
         49.57  49.61  49.73  49.98  50.03  50.05  50.10  50.29  50.60  50.63
         50.66  51.03  51.04  51.53  51.73  51.80  51.94  52.12  52.28  52.51
         52.71  52.76  53.16  53.52  53.71  53.80  53.88  53.90  54.06  54.52
         54.76  54.80  55.09  55.11  55.23  55.42  55.73  55.76  55.86  56.17
         56.40  56.47  56.81  57.01  57.02  57.42  57.55  57.55  57.80  58.03
         58.21  58.61  58.63  58.66  58.99  59.36  59.49  59.66  59.68  59.91
         59.92  60.01  60.17  60.38  60.41  60.76  61.14  61.23  61.23  61.26
         61.58  61.90  61.95  62.47  62.49  62.52  62.79  62.79  63.08  63.47
         63.87  63.94  64.44  64.60  65.48  65.57  65.59  66.51  66.76  66.76
         68.55  69.31  69.99  70.37  71.53  71.60  71.89  72.32  72.49  72.50
         72.61  73.46  73.49  74.25  74.39  74.63  74.80  74.89  74.98  75.06
         75.24  75.45  75.84  75.94  75.98  76.20  76.21  76.30  76.47  76.48
         76.99  77.28  77.37  77.59  78.60  78.70  78.76  78.93  79.69  79.87
         80.52  80.54  80.55  80.72  81.50  81.57  81.79  81.96  82.55  82.68
         83.00  83.34  83.49  83.50  83.86  83.87  84.00  84.47  84.92  85.14
         86.53  87.03  87.08  88.65  88.67  89.42  90.20  91.77  91.81  93.62
         94.15  95.91  96.28  96.73  96.84  98.97  99.79 100.37 101.45 102.39
        102.47 104.61 105.48 105.49 105.86 106.10 106.89 106.96 107.66 107.69
        108.51 110.24 111.76 111.76 115.34 116.01 116.42 118.30 121.21 121.91
        122.22 124.87 124.99 125.43 130.08 133.43 133.44 134.48 137.64 137.96
        138.31 138.96 139.89 141.09 142.08 144.36 144.68 144.80 145.40 145.76
        147.43 150.32 151.39 156.95 159.13 164.92 165.05 167.98 168.60 169.84
        171.09 172.40 172.59 173.14 175.03 175.29 181.55 182.58 182.77 186.19
  51  2 -22.06 -22.03 -21.76 -21.68 -21.29 -21.14 -20.64 -20.41 -19.82 -19.55
        -19.47 -19.43 -19.15 -19.14 -18.87 -18.69 -18.61 -18.50 -18.03 -17.96
        -17.82 -17.51 -17.37 -16.76 -16.65 -15.98 -15.69 -15.34 -15.12 -14.94
        -14.63 -14.58 -14.44 -14.20 -14.16 -13.83 -13.57 -13.57 -13.16 -13.16
        -13.03 -12.98 -12.83 -12.56 -12.53 -12.39 -11.68 -11.49 -11.47 -11.40
        -10.87 -10.78 -10.60 -10.38 -10.35 -10.21 -10.14 -10.12 -10.09 -10.06
         -9.79  -9.74  -9.71  -9.63  -9.57  -9.52  -9.50  -9.34  -9.33  -9.25
         -9.25  -9.10  -9.05  -8.79  -8.70  -8.53  -8.53  -8.37  -8.28  -8.06
         -7.92  -7.86  -7.80  -7.65  -7.45  -7.44  -7.32  -7.18  -7.16  -7.16
         -7.12  -6.86  -6.84  -6.70  -6.38  -6.32  -6.21  -5.92  -5.75  -5.75
         -5.15  -5.11  -4.35  -4.30  -2.34  -2.29  -1.64  -1.48  -1.16  -1.09
         -0.99  -0.32  -0.28  -0.21  -0.01   0.41   0.43   0.87   0.88   1.17
          1.42   2.45   2.47   2.68   2.95   2.98   3.02   3.95   4.08   4.14
          4.20   4.34   4.41   4.44   4.54   4.63   4.94   5.01   5.11   5.17
          5.20   5.25   5.48   5.56   5.57   5.71   5.80   5.93   6.12   6.21
          6.35   6.50   6.53   6.58   6.64   6.78   7.08   7.11   7.43   7.84
          7.85   7.90   8.22   8.49   8.83   8.86   9.14   9.17   9.32   9.32
          9.37   9.40   9.45   9.60   9.62   9.71   9.79   9.82   9.91   9.93
         10.04  10.23  10.25  10.32  10.40  10.65  10.68  10.73  10.75  10.82
         10.89  10.93  11.06  11.20  11.21  11.22  11.47  11.57  11.67  11.77
         11.82  11.90  11.94  12.01  12.07  12.30  12.34  12.38  12.39  12.51
         12.52  12.61  12.63  12.73  12.84  12.86  13.00  13.03  13.07  13.08
         13.25  13.28  13.29  13.29  13.34  13.37  13.38  13.42  13.44  13.50
         13.55  13.58  13.64  13.68  13.69  13.78  13.86  13.86  13.87  13.94
         13.97  14.00  14.18  14.19  14.52  14.52  14.57  14.65  14.77  14.78
         14.95  15.05  15.06  15.15  15.24  15.73  16.04  16.21  16.27  16.36
         16.42  16.43  16.74  16.75  17.75  17.76  17.89  17.93  18.13  18.22
         18.59  18.61  18.61  18.80  18.81  18.84  18.93  18.98  19.02  19.09
         19.18  19.32  19.32  19.42  19.58  19.66  19.72  19.76  19.89  19.90
         20.17  20.28  20.31  20.38  20.41  20.54  20.67  20.87  20.92  20.93
         20.99  21.06  21.11  21.19  21.21  21.35  21.52  21.52  21.54  21.74
         21.76  21.80  21.83  21.93  21.97  21.98  21.98  22.07  22.25  22.26
         22.27  22.47  22.54  22.61  22.68  22.71  22.78  22.79  22.88  22.95
         22.99  23.17  23.30  23.35  23.47  23.50  23.70  23.71  23.85  23.94
         23.96  24.02  24.22  24.31  24.33  24.41  24.71  24.82  24.89  25.23
         25.24  25.40  25.63  26.03  26.18  26.30  26.35  26.45  26.59  26.62
         26.76  26.91  27.22  27.66  28.00  28.28  28.77  28.80  29.05  29.49
         29.87  30.30  30.77  31.11  31.40  31.76  31.82  32.22  32.26  32.27
         32.73  32.79  33.11  33.28  33.37  33.42  33.42  33.87  34.15  34.23
         34.64  34.94  35.46  35.61  35.76  35.90  35.91  35.93  35.97  36.21
         36.29  36.37  36.40  36.47  36.50  36.64  37.16  37.17  37.28  37.31
         37.68  37.94  38.14  38.26  38.60  38.69  38.69  38.79  39.73  40.01
         40.34  40.68  41.12  41.13  41.50  41.67  42.12  42.42  43.07  43.08
         43.58  43.68  44.19  44.40  44.41  44.51  44.59  44.69  44.83  45.15
         45.31  45.64  45.72  45.82  46.26  46.40  46.47  46.83  47.09  47.15
         47.51  47.53  47.57  47.58  47.86  48.21  48.24  48.39  48.40  49.21
         49.57  49.61  49.73  49.98  50.03  50.05  50.10  50.29  50.60  50.63
         50.66  51.03  51.04  51.53  51.73  51.80  51.94  52.12  52.28  52.51
         52.71  52.76  53.16  53.52  53.71  53.80  53.88  53.90  54.06  54.52
         54.76  54.80  55.09  55.11  55.23  55.42  55.73  55.76  55.86  56.17
         56.40  56.47  56.81  57.01  57.02  57.42  57.55  57.55  57.80  58.03
         58.21  58.61  58.63  58.66  58.99  59.36  59.49  59.66  59.68  59.91
         59.92  60.01  60.17  60.38  60.41  60.76  61.14  61.23  61.24  61.26
         61.58  61.90  61.95  62.47  62.49  62.52  62.79  62.79  63.09  63.47
         63.87  63.94  64.44  64.60  65.48  65.57  65.59  66.51  66.76  66.76
         68.55  69.31  69.99  70.37  71.53  71.60  71.89  72.32  72.49  72.50
         72.61  73.46  73.49  74.25  74.39  74.63  74.80  74.89  74.98  75.06
         75.24  75.45  75.84  75.94  75.98  76.20  76.21  76.30  76.47  76.48
         76.99  77.28  77.37  77.59  78.60  78.70  78.76  78.93  79.69  79.87
         80.52  80.54  80.55  80.72  81.50  81.57  81.79  81.96  82.55  82.68
         83.00  83.34  83.49  83.50  83.86  83.87  84.00  84.47  84.92  85.14
         86.53  87.03  87.08  88.65  88.67  89.42  90.20  91.77  91.81  93.62
         94.15  95.91  96.28  96.73  96.84  98.97  99.79 100.37 101.45 102.39
        102.47 104.61 105.48 105.49 105.86 106.10 106.89 106.96 107.66 107.69
        108.51 110.24 111.76 111.76 115.34 116.01 116.42 118.30 121.21 121.91
        122.22 124.87 124.99 125.43 130.08 133.43 133.44 134.48 137.64 137.96
        138.31 138.96 139.89 141.09 142.08 144.36 144.68 144.80 145.40 145.76
        147.43 150.32 151.39 156.95 159.13 164.92 165.05 167.98 168.60 169.84
        171.09 172.40 172.59 173.14 175.03 175.29 181.55 182.58 182.77 186.19
siesta: Fermi energy =      -3.366435 eV

siesta: Program's energy decomposition (eV):
siesta: Ebs     =     -2531.392639
siesta: Eions   =     10235.245348
siesta: Ena     =      1015.922695
siesta: Ekin    =      5703.889123
siesta: Enl     =     -1789.075159
siesta: Eso     =         0.000000
siesta: Eldau   =         0.000000
siesta: DEna    =      -116.847982
siesta: DUscf   =        12.044504
siesta: DUext   =         0.000000
siesta: Enegf   =         0.000000
siesta: Exc     =     -2451.311887
siesta: eta*DQ  =         0.000000
siesta: Emadel  =         0.000000
siesta: Emeta   =         0.000000
siesta: Emolmec =         0.000000
siesta: Ekinion =         0.000000
siesta: Eharris =     -7860.624054
siesta: Etot    =     -7860.624054
siesta: FreeEng =     -7860.624242

siesta: Final energy (eV):
siesta:  Band Struct. =   -2531.392639
siesta:       Kinetic =    5703.889123
siesta:       Hartree =   75537.252535
siesta:       Eldau   =       0.000000
siesta:       Eso     =       0.000000
siesta:    Ext. field =       0.000000
siesta:       Enegf   =       0.000000
siesta:   Exch.-corr. =   -2451.311887
siesta:  Ion-electron = -156119.943125
siesta:       Ion-ion =   69469.489300
siesta:       Ekinion =       0.000000
siesta:         Total =   -7860.624054
siesta:         Fermi =      -3.366435

siesta: Stress tensor (static) (eV/Ang**3):
siesta:    -0.000674   -0.000000    0.000000
siesta:    -0.000000    0.000030   -0.000000
siesta:     0.000000   -0.000000    0.000004

siesta: Cell volume =       8970.000000 Ang**3

siesta: Pressure (static):
siesta:                Solid            Molecule  Units
siesta:           0.00000232          0.00000230  Ry/Bohr**3
siesta:           0.00021313          0.00021123  eV/Ang**3
siesta:           0.34147599          0.33842911  kBar
(Free)E+ p_basis*V_orbitals  =       -7844.323201
(Free)Eharris+ p_basis*V_orbitals  =       -7844.323201

siesta: Total spin polarization (Qup-Qdown) =    0.000001

siesta: Electric dipole (a.u.)  =    0.000000   -0.000136   -0.000000
siesta: Electric dipole (Debye) =    0.000000   -0.000345   -0.000000

Hirshfeld Net Atomic Populations:
Atom #    Qatom  Species
     1    0.021  H.mpn               
     2    0.004  C.mpn               
     3    0.023  H.mpn               
     4   -0.031  C.mpn               
     5    0.005  C.mpn               
     6    0.000  C.mpn               
     7    0.000  C.mpn               
     8   -0.000  C.mpn               
     9    0.026  H.mpn               
    10   -0.030  C.mpn               
    11    0.007  C.mpn               
    12    0.001  C.mpn               
    13    0.000  C.mpn               
    14    0.000  C.mpn               
    15   -0.000  C.mpn               
    16   -0.000  C.mpn               
    17   -0.000  C.mpn               
    18   -0.001  C.mpn               
    19   -0.026  C.mpn               
    20   -0.028  C.mpn               
    21    0.002  C.mpn               
    22    0.000  C.mpn               
    23   -0.000  C.mpn               
    24   -0.000  C.mpn               
    25   -0.000  C.mpn               
    26   -0.000  C.mpn               
    27   -0.001  C.mpn               
    28   -0.000  C.mpn               
    29    0.000  C.mpn               
    30    0.002  C.mpn               
    31   -0.026  C.mpn               
    32    0.024  H.mpn               
    33    0.024  H.mpn               
    34    0.006  C.mpn               
    35   -0.001  C.mpn               
    36   -0.001  C.mpn               
    37   -0.000  C.mpn               
    38   -0.000  C.mpn               
    39   -0.000  C.mpn               
    40    0.000  C.mpn               
    41    0.000  C.mpn               
    42    0.001  C.mpn               
    43    0.007  C.mpn               
    44   -0.030  C.mpn               
    45   -0.000  C.mpn               
    46   -0.000  C.mpn               
    47   -0.000  C.mpn               
    48    0.000  C.mpn               
    49    0.000  C.mpn               
    50    0.005  C.mpn               
    51   -0.031  C.mpn               
    52    0.026  H.mpn               
    53   -0.001  C.mpn               
    54    0.004  C.mpn               
    55    0.006  C.mpn               
    56    0.023  H.mpn               
    57   -0.028  C.mpn               
    58    0.021  H.mpn               

Voronoi Net Atomic Populations:
Atom #    Qatom  Species
     1    0.000  H.mpn               
     2    0.002  C.mpn               
     3   -0.002  H.mpn               
     4   -0.009  C.mpn               
     5    0.005  C.mpn               
     6   -0.001  C.mpn               
     7    0.000  C.mpn               
     8   -0.001  C.mpn               
     9    0.001  H.mpn               
    10   -0.005  C.mpn               
    11    0.007  C.mpn               
    12    0.001  C.mpn               
    13    0.001  C.mpn               
    14    0.001  C.mpn               
    15   -0.001  C.mpn               
    16   -0.000  C.mpn               
    17   -0.001  C.mpn               
    18   -0.002  C.mpn               
    19   -0.002  C.mpn               
    20   -0.007  C.mpn               
    21    0.002  C.mpn               
    22    0.003  C.mpn               
    23   -0.000  C.mpn               
    24    0.001  C.mpn               
    25    0.001  C.mpn               
    26   -0.002  C.mpn               
    27    0.001  C.mpn               
    28   -0.000  C.mpn               
    29    0.003  C.mpn               
    30    0.001  C.mpn               
    31   -0.002  C.mpn               
    32    0.001  H.mpn               
    33    0.004  H.mpn               
    34    0.001  C.mpn               
    35   -0.002  C.mpn               
    36   -0.000  C.mpn               
    37    0.001  C.mpn               
    38    0.001  C.mpn               
    39    0.001  C.mpn               
    40    0.001  C.mpn               
    41    0.002  C.mpn               
    42    0.001  C.mpn               
    43    0.006  C.mpn               
    44   -0.006  C.mpn               
    45   -0.001  C.mpn               
    46   -0.001  C.mpn               
    47   -0.000  C.mpn               
    48    0.001  C.mpn               
    49   -0.000  C.mpn               
    50    0.004  C.mpn               
    51   -0.007  C.mpn               
    52    0.002  H.mpn               
    53   -0.002  C.mpn               
    54    0.002  C.mpn               
    55   -0.000  C.mpn               
    56   -0.002  H.mpn               
    57   -0.002  C.mpn               
    58    0.001  H.mpn               
>> End of run:  17-APR-2018  23:38:32
Job completed
Job completed
