Siesta Version  : siesta-4.1--852
Architecture    : unknown
Compiler version: ifort (IFORT) 17.0.4 20170411
Compiler flags  : mpiifort -O1 -xHost -mp1 -fpp -ftz -I/scicomp/easybuild/CentOS/7.3.1611/Hasweell/software/imkl/2017.3.196-iimpi-2017b/mkl/include -I/scratch/scicomp/easybuild/CentOS/7.3.1611/Haswell/software/netCDF-Fortran/4.4.4-intel-2017b/include -I/scratch/scicomp/easybuild/CentOS/7.3.1611/Haswell/software/netCDF/4.4.1.1-intel-2017b/include
PP flags        :  -DFC_HAVE_ABORT -DMPI -DCDF -DNCDF -DNCDF_4 -DGRID_DP -DNCDF_PARALLEL
Libraries       : libncdf.a libfdict.a -L/scratch/scicomp/easybuild/CentOS/7.3.1611/Haswell/sofftware/netCDF-Fortran/4.4.4-intel-2017b/lib -lnetcdff -L/scratch/scicomp/easybuild/CentOS/7.3.1611/Haswell/software/cURL/7.56.0-GCCcore-6.4.0/lib -lcurl -L/scratch/scicomp/easybuild/CentOS/7.3.1611/Haswell/software/netCDF/4.4.1.1-intel-2017b/lib64 -lnetcdf -L/scratch/scicomp/easybuild/CentOS/7.3.1611/Haswell/software/HDF5/1.10.1-intel-2017b/lib -lhdf5hl_fortran -lhdf5_fortran -lhdf5_hl -lhdf5 -L/scratch/scicomp/easybuild/CentOS/7.3.1611/Haswell/software/Szip/2.1.1-GCCcore-6.4.0/lib -lsz -L/scratch/scicomp/easybuild/CentOS/7.3.1611/Haswell/software/zlib/1.2.11-GCCcore-6.4.0/lib -lz /scicomp/easybuild/CentOS/7.3.1611/Haswell/software/imkl/2017.3.196-iimpi-2017b/mkl/lib/intel64/libmkl_scalapack_lp64.a -Wl,--start-group /scicomp/easybuild/CentOS/7.3.1611/Haswell/software/imkl/2017.3.196-iimpi-2017b/mkl/lib/intel64/libmkl_intel_lp64.a /scicomp/easybuild/CentOS/7.3.1611/Haswell/software/imkl/2017.3.196-iimpi-2017b/mkl/lib/intel64/libmkl_sequential.a /scicomp/easybuild/CentOS/7.3.1611/Haswell/software/imkl/2017.3.196-iimpi-2017b/mkl/lib/intel64/libmkl_core.a /scicomp/easybuild/CentOS/7.3.1611/Haswell/software/imkl/2017.3.196-iimpi-2017b/mkl/lib/intel64/libmkl_blacs_intelmpi_lp64.a -Wl,--end-group -lpthread -lm -ldl
PARALLEL version
NetCDF support
NetCDF-4 support
NetCDF-4 MPI-IO support

* Running on 24 nodes in parallel
>> Start of run:  16-APR-2018  16:14:06

                           ***********************       
                           *  WELCOME TO SIESTA  *       
                           ***********************       

reinit: Reading from standard input
reinit: Dumped input in INPUT_TMP.85546
************************** Dump of input data file ****************************
SystemTitle molecule
SystemLabel molecule
SolutionMethod     diagon
TS.HS.Save         true
MD.TypeOfRun  CG
MD.TypeOfRun  Broyden
MD.Broyden.Cycle.On.Maxit F
MD.NumCGsteps  1000
MD.MaxForceTol 0.002 eV/Ang
Diag.ParallelOverK true
%block kgrid_Monkhorst_Pack
 100    0    0    0.0
  0    1    0    0.0
  0    0    1    0.0
%endblock kgrid_Monkhorst_Pack
MaxSCFIterations      3000
SCFMustConverge       true
DM.Tolerance          1.d-5
DM.UseSaveDM          true
DM.NumberPulay	      7
DM.MixingWeight       0.1
MD.UseSaveXV          true
XC.functional         LDA
XC.authors     	      CA
MeshCutoff            400. Ry
PAO.BasisSize   DZP
PAO.BasisType   split
%block ChemicalSpeciesLabel
    1   1 H.ca
    2   6 C.ca2
%endblock ChemicalSpeciesLabel
%include STRUCT.fdf
SpinPolarized   true
#FixSpin  true
#Spin.Fix true
#Spin.Total 0
#TotalSpin  0
%block DM.InitSpin
41   1.
10  -1.
%endblock DM.InitSpin
WriteMullikenPop 1
WriteHirshfeldPop true
WriteVoronoiPop true
WriteEigenvalues true
WriteWaveFunctions true
************************** End of input data file *****************************

reinit: -----------------------------------------------------------------------
reinit: System Name: 
reinit: -----------------------------------------------------------------------
reinit: System Label: molecule
reinit: -----------------------------------------------------------------------

initatom: Reading input for the pseudopotentials and atomic orbitals ----------
Species number:   1 Atomic number:    1 Label: H.ca
Species number:   2 Atomic number:    6 Label: C.ca2
 
Ground state valence configuration:   1s01
Reading pseudopotential information in formatted form from H.ca.psf

Pseudopotential generated from a relativistic atomic calculation

Valence configuration for pseudopotential generation:
1s( 1.00) rc: 1.31
2p( 0.00) rc: 1.31
3d( 0.00) rc: 0.37
4f( 0.00) rc: 1.31
Ground state valence configuration:   2s02  2p02
Reading pseudopotential information in formatted form from C.ca2.psf

Pseudopotential generated from a relativistic atomic calculation

Valence configuration for pseudopotential generation:
2s( 2.00) rc: 1.54
2p( 2.00) rc: 1.54
3d( 0.00) rc: 1.54
4f( 0.00) rc: 1.54
For H.ca, standard SIESTA heuristics set lmxkb to 2
 (one more than the basis l, including polarization orbitals).
Use PS.lmax or PS.KBprojectors blocks to override.
For C.ca2, standard SIESTA heuristics set lmxkb to 3
 (one more than the basis l, including polarization orbitals).
Use PS.lmax or PS.KBprojectors blocks to override.

<basis_specs>
===============================================================================
H.ca                 Z=   1    Mass=  1.0100        Charge= 0.17977+309
Lmxo=0 Lmxkb= 2    BasisType=split      Semic=F
L=0  Nsemic=0  Cnfigmx=1
          n=1  nzeta=2  polorb=1
            splnorm:   0.15000    
               vcte:    0.0000    
               rinn:    0.0000    
               qcoe:    0.0000    
               qyuk:    0.0000    
               qwid:   0.10000E-01
                rcs:    0.0000      0.0000    
            lambdas:    1.0000      1.0000    
-------------------------------------------------------------------------------
L=0  Nkbl=1  erefs: 0.17977+309
L=1  Nkbl=1  erefs: 0.17977+309
L=2  Nkbl=1  erefs: 0.17977+309
===============================================================================
</basis_specs>

atom: Called for H.ca                  (Z =   1)

read_vps: Pseudopotential generation method:
read_vps: ATM3.3.2  Troullier-Martins                       
Total valence charge:    1.00000

xc_check: Exchange-correlation functional:
xc_check: Ceperley-Alder
V l=0 = -2*Zval/r beyond r=  1.2977
V l=1 = -2*Zval/r beyond r=  1.2815
V l=2 = -2*Zval/r beyond r=  1.1307
All V_l potentials equal beyond r=  1.2977
This should be close to max(r_c) in ps generation
All pots = -2*Zval/r beyond r=  1.2977

VLOCAL1: 99.0% of the norm of Vloc inside     25.776 Ry
VLOCAL1: 99.9% of the norm of Vloc inside     58.745 Ry
atom: Maximum radius for 4*pi*r*r*local-pseudopot. charge    1.52711
atom: Maximum radius for r*vlocal+2*Zval:    1.28155
GHOST: No ghost state for L =  0
GHOST: No ghost state for L =  1
GHOST: No ghost state for L =  2

KBgen: Kleinman-Bylander projectors: 
   l= 0   rc=  1.452513   el= -0.467311   Ekb= -1.940806   kbcos= -0.353010
   l= 1   rc=  1.752576   el=  0.001430   Ekb= -0.484365   kbcos= -0.024070
   l= 2   rc=  1.774652   el=  0.002365   Ekb= -0.503986   kbcos= -0.001615

KBgen: Total number of  Kleinman-Bylander projectors:    9
atom: -------------------------------------------------------------------------

atom: SANKEY-TYPE ORBITALS:
atom: Selected multiple-zeta basis: split     

SPLIT: Orbitals with angular momentum L= 0

SPLIT: Basis orbitals for state 1s

SPLIT: PAO cut-off radius determined from an
SPLIT: energy shift=  0.020000 Ry

   izeta = 1
                 lambda =    1.000000
                     rc =    4.828263
                 energy =   -0.449360
                kinetic =    0.925772
    potential(screened) =   -1.375132
       potential(ionic) =   -1.911259

   izeta = 2
                 rmatch =    3.854947
              splitnorm =    0.150000
                 energy =   -0.336131
                kinetic =    1.498125
    potential(screened) =   -1.834256
       potential(ionic) =   -2.406171

POLgen: Perturbative polarization orbital with L=  1

POLgen: Polarization orbital for state 1s

   izeta = 1
                     rc =    4.828263
                 energy =    0.707058
                kinetic =    1.398648
    potential(screened) =   -0.691590
       potential(ionic) =   -1.171958
atom: Total number of Sankey-type orbitals:  5

atm_pop: Valence configuration (for local Pseudopot. screening):
 1s( 1.00)                                                            
Vna: chval, zval:    1.00000   1.00000

Vna:  Cut-off radius for the neutral-atom potential:   4.828263

atom: _________________________________________________________________________

<basis_specs>
===============================================================================
C.ca2                Z=   6    Mass=  12.010        Charge= 0.17977+309
Lmxo=1 Lmxkb= 3    BasisType=split      Semic=F
L=0  Nsemic=0  Cnfigmx=2
          n=1  nzeta=2  polorb=0
            splnorm:   0.15000    
               vcte:    0.0000    
               rinn:    0.0000    
               qcoe:    0.0000    
               qyuk:    0.0000    
               qwid:   0.10000E-01
                rcs:    0.0000      0.0000    
            lambdas:    1.0000      1.0000    
L=1  Nsemic=0  Cnfigmx=2
          n=1  nzeta=2  polorb=1
            splnorm:   0.15000    
               vcte:    0.0000    
               rinn:    0.0000    
               qcoe:    0.0000    
               qyuk:    0.0000    
               qwid:   0.10000E-01
                rcs:    0.0000      0.0000    
            lambdas:    1.0000      1.0000    
-------------------------------------------------------------------------------
L=0  Nkbl=1  erefs: 0.17977+309
L=1  Nkbl=1  erefs: 0.17977+309
L=2  Nkbl=1  erefs: 0.17977+309
L=3  Nkbl=1  erefs: 0.17977+309
===============================================================================
</basis_specs>

atom: Called for C.ca2                 (Z =   6)

read_vps: Pseudopotential generation method:
read_vps: ATM3.3.2  Troullier-Martins                       
Total valence charge:    4.00000

xc_check: Exchange-correlation functional:
xc_check: Ceperley-Alder
V l=0 = -2*Zval/r beyond r=  1.5227
V l=1 = -2*Zval/r beyond r=  1.5227
V l=2 = -2*Zval/r beyond r=  1.5227
V l=3 = -2*Zval/r beyond r=  1.5038
All V_l potentials equal beyond r=  1.5227
This should be close to max(r_c) in ps generation
All pots = -2*Zval/r beyond r=  1.5227

VLOCAL1: 99.0% of the norm of Vloc inside     18.722 Ry
VLOCAL1: 99.9% of the norm of Vloc inside     42.668 Ry
atom: Maximum radius for 4*pi*r*r*local-pseudopot. charge    1.83678
atom: Maximum radius for r*vlocal+2*Zval:    1.58088
GHOST: No ghost state for L =  0
GHOST: No ghost state for L =  1
GHOST: No ghost state for L =  2
GHOST: No ghost state for L =  3

KBgen: Kleinman-Bylander projectors: 
   l= 0   rc=  1.769164   el= -1.002383   Ekb=  4.944706   kbcos=  0.320005
   l= 1   rc=  1.769164   el= -0.398438   Ekb= -4.111874   kbcos= -0.367023
   l= 2   rc=  2.107589   el=  0.002326   Ekb= -1.050436   kbcos= -0.009341
   l= 3   rc=  2.358593   el=  0.003420   Ekb= -0.444500   kbcos= -0.001214

KBgen: Total number of  Kleinman-Bylander projectors:   16
atom: -------------------------------------------------------------------------

atom: SANKEY-TYPE ORBITALS:
atom: Selected multiple-zeta basis: split     

SPLIT: Orbitals with angular momentum L= 0

SPLIT: Basis orbitals for state 2s

SPLIT: PAO cut-off radius determined from an
SPLIT: energy shift=  0.020000 Ry

   izeta = 1
                 lambda =    1.000000
                     rc =    4.191849
                 energy =   -0.984359
                kinetic =    0.881234
    potential(screened) =   -1.865594
       potential(ionic) =   -5.477335

   izeta = 2
                 rmatch =    3.431921
              splitnorm =    0.150000
                 energy =   -0.853663
                kinetic =    1.298382
    potential(screened) =   -2.152045
       potential(ionic) =   -5.997528

SPLIT: Orbitals with angular momentum L= 1

SPLIT: Basis orbitals for state 2p

SPLIT: PAO cut-off radius determined from an
SPLIT: energy shift=  0.020000 Ry

   izeta = 1
                 lambda =    1.000000
                     rc =    4.870301
                 energy =   -0.378923
                kinetic =    2.540340
    potential(screened) =   -2.919263
       potential(ionic) =   -6.428536

   izeta = 2
                 rmatch =    3.475094
              splitnorm =    0.150000
                 energy =   -0.214881
                kinetic =    3.815219
    potential(screened) =   -4.030100
       potential(ionic) =   -7.921348

POLgen: Perturbative polarization orbital with L=  2

POLgen: Polarization orbital for state 2p

   izeta = 1
                     rc =    4.870301
                 energy =    1.281120
                kinetic =    2.631157
    potential(screened) =   -1.350037
       potential(ionic) =   -4.295491
atom: Total number of Sankey-type orbitals: 13

atm_pop: Valence configuration (for local Pseudopot. screening):
 2s( 2.00)                                                            
 2p( 2.00)                                                            
Vna: chval, zval:    4.00000   4.00000

Vna:  Cut-off radius for the neutral-atom potential:   4.870301

atom: _________________________________________________________________________

prinput: Basis input ----------------------------------------------------------

PAO.BasisType split     

%block ChemicalSpeciesLabel
    1    1 H.ca                    # Species index, atomic number, species label
    2    6 C.ca2                   # Species index, atomic number, species label
%endblock ChemicalSpeciesLabel

%block PAO.Basis                 # Define Basis set
H.ca                  1                    # Species label, number of l-shells
 n=1   0   2 P   1                   # n, l, Nzeta, Polarization, NzetaPol
   4.828      3.855   
   1.000      1.000   
C.ca2                 2                    # Species label, number of l-shells
 n=2   0   2                         # n, l, Nzeta 
   4.192      3.432   
   1.000      1.000   
 n=2   1   2 P   1                   # n, l, Nzeta, Polarization, NzetaPol
   4.870      3.475   
   1.000      1.000   
%endblock PAO.Basis

prinput: ----------------------------------------------------------------------

Dumping basis to NetCDF file H.ca.ion.nc
Dumping basis to NetCDF file C.ca2.ion.nc
coor:   Atomic-coordinates input format  =     Cartesian coordinates
coor:                                          (in Angstroms)

siesta: WARNING: XV file not found

siesta: Atomic coordinates (Bohr) and species
siesta:     22.09644  11.43128  18.89727  1        1
siesta:     20.62242  15.24618  18.89727  2        2
siesta:     26.57340  10.42731  18.89727  1        3
siesta:     22.53158  13.46991  18.89727  2        4
siesta:     25.08424  14.23540  18.89727  2        5
siesta:     21.19414  17.81455  18.89727  2        6
siesta:     23.69941  18.67586  18.89727  2        7
siesta:     22.43485  23.19047  18.89727  2        8
siesta:     31.03718   9.36686  18.89727  1        9
siesta:     27.04295  12.46098  18.89727  2       10
siesta:     29.58131  13.19703  18.89727  2       11
siesta:     25.68069  16.87238  18.89727  2       12
siesta:     28.24366  17.66117  18.89727  2       13
siesta:     24.32226  21.32620  18.89727  2       14
siesta:     26.88463  22.10932  18.89727  2       15
siesta:     23.01854  25.71657  18.89727  2       16
siesta:     25.53733  26.56187  18.89727  2       17
siesta:     24.25432  31.06784  18.89727  2       18
siesta:     31.53991  11.38984  18.89727  2       19
siesta:     34.03456  12.14925  18.89727  2       20
siesta:     30.20141  15.82854  18.89727  2       21
siesta:     32.77277  16.58083  18.89727  2       22
siesta:     28.84794  20.27836  18.89727  2       23
siesta:     31.41523  21.06319  18.89727  2       24
siesta:     27.49333  24.73663  18.89727  2       25
siesta:     30.06109  25.53214  18.89727  2       26
siesta:     26.14727  29.20346  18.89727  2       27
siesta:     28.70555  29.98577  18.89727  2       28
siesta:     24.83724  33.59405  18.89727  2       29
siesta:     27.35099  34.44178  18.89727  2       30
siesta:     26.07900  38.96941  18.89727  2       31
siesta:     25.16822  42.94894  18.89727  1       32
siesta:     35.55737  10.72838  18.89727  1       33
siesta:     34.64677  14.70828  18.89727  2       34
siesta:     33.37487  19.23592  18.89727  2       35
siesta:     35.88855  20.08400  18.89727  2       36
siesta:     32.02007  23.69137  18.89727  2       37
siesta:     34.57828  24.47429  18.89727  2       38
siesta:     30.66434  28.14468  18.89727  2       39
siesta:     33.23200  28.94067  18.89727  2       40
siesta:     29.31044  32.61416  18.89727  2       41
siesta:     31.87760  33.39928  18.89727  2       42
siesta:     27.95296  37.09673  18.89727  2       43
siesta:     30.52426  37.84883  18.89727  2       44
siesta:     26.69129  41.52839  18.89727  2       45
siesta:     29.18600  42.28765  18.89727  2       46
siesta:     36.47144  22.61026  18.89727  2       47
siesta:     35.18824  27.11589  18.89727  2       48
siesta:     37.70697  27.96157  18.89727  2       49
siesta:     33.84067  31.56815  18.89727  2       50
siesta:     36.40308  32.35162  18.89727  2       51
siesta:     32.48196  36.01638  18.89727  2       52
siesta:     35.04491  36.80498  18.89727  2       53
siesta:     31.14430  40.48026  18.89727  2       54
siesta:     33.68268  41.21631  18.89727  2       55
siesta:     29.68907  44.31052  18.89727  1       56
siesta:     38.29066  30.48761  18.89727  2       57
siesta:     37.02613  35.00168  18.89727  2       58
siesta:     39.53142  35.86311  18.89727  2       59
siesta:     35.64136  39.44187  18.89727  2       60
siesta:     38.19385  40.20766  18.89727  2       61
siesta:     34.15228  43.25000  18.89727  1       62
siesta:     40.10310  38.43147  18.89727  2       63
siesta:     38.62862  42.24630  18.89727  1       64

siesta: System type = chain     

initatomlists: Number of atoms, orbitals, and projectors:     64   768   968

siesta: ******************** Simulation parameters ****************************
siesta:
siesta: The following are some of the parameters of the simulation.
siesta: A complete list of the parameters used, including default values,
siesta: can be found in file out.fdf
siesta:
redata: Spin configuration                          = collinear
redata: Number of spin components                   = 2
redata: Time-Reversal Symmetry                      = T
redata: Spin-spiral                                 = F
redata: Long output                                 =   F
redata: Number of Atomic Species                    =        2
redata: Charge density info will appear in .RHO file
redata: Write Mulliken Pop.                         = Atomic and Orbital charges
redata: Mesh Cutoff                                 =   400.0000 Ry
redata: Net charge of the system                    =     0.0000 |e|
redata: Min. number of SCF Iter                     =        0
redata: Max. number of SCF Iter                     =     3000
redata: SCF convergence failure will abort job
redata: SCF mix quantity                            = Hamiltonian
redata: Mix DM or H after convergence               =   F
redata: Recompute H after scf cycle                 =   F
redata: Mix DM in first SCF step                    =   T
redata: Write Pulay info on disk                    =   F
redata: New DM Mixing Weight                        =     0.1000
redata: New DM Occupancy tolerance                  = 0.000000000001
redata: No kicks to SCF
redata: DM Mixing Weight for Kicks                  =     0.5000
redata: Require Harris convergence for SCF          =   F
redata: Harris energy tolerance for SCF             =     0.000100 eV
redata: Require DM convergence for SCF              =   T
redata: DM tolerance for SCF                        =     0.000010
redata: Require EDM convergence for SCF             =   F
redata: EDM tolerance for SCF                       =     0.001000 eV
redata: Require H convergence for SCF               =   T
redata: Hamiltonian tolerance for SCF               =     0.001000 eV
redata: Require (free) Energy convergence for SCF   =   F
redata: (free) Energy tolerance for SCF             =     0.000100 eV
redata: Antiferro initial spin density              =   F
redata: Using Saved Data (generic)                  =   F
redata: Use continuation files for DM               =   T
redata: Neglect nonoverlap interactions             =   F
redata: Method of Calculation                       = Diagonalization
redata: Electronic Temperature                      =   299.9869 K
redata: Fix the spin of the system                  =   F
redata: Dynamics option                             = CG coord. optimization
redata: Variable cell                               =   F
redata: Use continuation files for CG               =   F
redata: Max atomic displ per move                   =     0.1058 Ang
redata: Maximum number of CG moves                  =     1000
redata: Force tolerance                             =     0.0020 eV/Ang
mix.SCF: Pulay mixing                            = Pulay
mix.SCF:    Variant                              = stable
mix.SCF:    History steps                        = 7
mix.SCF:    Linear mixing weight                 =     0.100000
mix.SCF:    Mixing weight                        =     0.100000
mix.SCF:    SVD condition                        = 0.1000E-07
mix.SCF: Spin-component mixing                   all
redata: Save all siesta data in one NC              =   F
redata: ***********************************************************************

%block SCF.Mixers
  Pulay
%endblock SCF.Mixers

%block SCF.Mixer.Pulay
  # Mixing method
  method pulay
  variant stable

  # Mixing options
  weight 0.1000
  weight.linear 0.1000
  history 7
%endblock SCF.Mixer.Pulay
 
DM_history_depth set to one: no extrapolation allowed by default for geometry relaxation
Size of DM history Fstack: 1
Total number of electrons:   232.000000
Total ionic charge:   232.000000

* ProcessorY, Blocksize:    4  24


* Orbital distribution balance (max,min):    48    24

k-point displ. along   1 input, could be:     0.00    0.50
 Kpoints in:           51 . Kpoints trimmed:           51

siesta: k-grid: Number of k-points =    51
siesta: k-grid: Cutoff (effective) =    10.000 Ang
siesta: k-grid: Supercell and displacements
siesta: k-grid:  100   0   0      0.000
siesta: k-grid:    0   1   0      0.000
siesta: k-grid:    0   0   1      0.000
 
diag: Algorithm                                     = D&C
diag: Parallel over k                               =   T
diag: Use parallel 2D distribution                  =   T
diag: Parallel block-size                           = 24
diag: Parallel distribution                         =     4 x     6
diag: Used triangular part                          = Lower
diag: Absolute tolerance                            =  0.100E-15
diag: Orthogonalization factor                      =  0.100E-05
diag: Memory factor                                 =  1.0000

superc: Internal auxiliary supercell:     3 x     1 x     1  =       3
superc: Number of atoms, orbitals, and projectors:    192   2304   2904
 
 
ts: **************************************************************
ts: Save H and S matrices                           =    T
ts: Save DM and EDM matrices                        =    F
ts: Fix Hartree potential                           =    F
ts: Only save the overlap matrix S                  =    F
ts: **************************************************************
 
************************ Begin: TS CHECKS AND WARNINGS ************************
************************ End: TS CHECKS AND WARNINGS **************************


                     ====================================
                        Begin CG opt. move =      0
                     ====================================

superc: Internal auxiliary supercell:     3 x     1 x     1  =       3
superc: Number of atoms, orbitals, and projectors:    192   2304   2904

outcell: Unit cell vectors (Ang):
        8.870000    0.000000    0.000000
        0.000000   50.000000    0.000000
        0.000000    0.000000   20.000000

outcell: Cell vector modules (Ang)   :    8.870000   50.000000   20.000000
outcell: Cell angles (23,13,12) (deg):     90.0000     90.0000     90.0000
outcell: Cell volume (Ang**3)        :   8870.0000
<dSpData1D:S at geom step 0
  <sparsity:sparsity for geom step 0
    nrows_g=768 nrows=48 sparsity=.0452 nnzs=26684, refcount: 7>
  <dData1D:(new from dSpData1D) n=26684, refcount: 1>
refcount: 1>
new_DM -- step:     1
Initializing Density Matrix...
 
Attempting to read DM from file... Failed...
DM filled with atomic data (user-defined):
<dSpData2D:DM initialized from atoms
  <sparsity:sparsity for geom step 0
    nrows_g=768 nrows=48 sparsity=.0452 nnzs=26684, refcount: 8>
  <dData2D:DM n=26684 m=2, refcount: 1>
refcount: 1>

initDM: Initial spin polarization (Qup-Qdown) =    0.000000

No. of atoms with KB's overlaping orbs in proc 0. Max # of overlaps:      50     217
New grid distribution:   1
           1       1:   54    1:   80    1:   21
           2       1:   54    1:   80   22:   42
           3       1:   54    1:   80   43:   63
           4       1:   54    1:   80   64:   84
           5       1:   54    1:   80   85:  105
           6       1:   54    1:   80  106:  125
           7       1:   54   81:  160    1:   21
           8       1:   54   81:  160   22:   42
           9       1:   54   81:  160   43:   63
          10       1:   54   81:  160   64:   84
          11       1:   54   81:  160   85:  105
          12       1:   54   81:  160  106:  125
          13       1:   54  161:  240    1:   21
          14       1:   54  161:  240   22:   42
          15       1:   54  161:  240   43:   63
          16       1:   54  161:  240   64:   84
          17       1:   54  161:  240   85:  105
          18       1:   54  161:  240  106:  125
          19       1:   54  241:  320    1:   21
          20       1:   54  241:  320   22:   42
          21       1:   54  241:  320   43:   63
          22       1:   54  241:  320   64:   84
          23       1:   54  241:  320   85:  105
          24       1:   54  241:  320  106:  125

InitMesh: MESH =   108 x   640 x   250 =    17280000
InitMesh: (bp) =    54 x   320 x   125 =     2160000
InitMesh: Mesh cutoff (required, used) =   400.000   409.734 Ry
ExtMesh (bp) on 0 =   118 x   148 x    89 =     1554296
New grid distribution:   2
           1       1:   54    1:   48    1:   63
           2       1:   54  101:  117   68:  125
           3       1:   54   66:   74    1:   63
           4       1:   54   49:   65   64:   67
           5       1:   54    1:   48   64:  125
           6       1:   54   75:   91   60:   63
           7       1:   54   75:   91    1:   59
           8       1:   54  118:  126    1:   63
           9       1:   54  101:  117    1:   59
          10       1:   54   92:  100    1:   63
          11       1:   54   75:   91   68:  125
          12       1:   54   49:   65   60:   63
          13       1:   54  127:  320    1:   58
          14       1:   54   49:   65   68:  125
          15       1:   54   92:  100   64:  125
          16       1:   54  101:  117   60:   63
          17       1:   54  127:  320   68:  125
          18       1:   54  127:  320   59:   63
          19       1:   54   66:   74   64:  125
          20       1:   54  101:  117   64:   67
          21       1:   54   49:   65    1:   59
          22       1:   54  127:  320   64:   67
          23       1:   54  118:  126   64:  125
          24       1:   54   75:   91   64:   67
New grid distribution:   3
           1       1:   54    1:   34    1:   63
           2       1:   54   35:   57    1:   55
           3       1:   54   58:   69    1:   63
           4       1:   54   35:   57   64:   71
           5       1:   54    1:   34   64:  125
           6       1:   54   70:   92   56:   63
           7       1:   54   70:   92    1:   55
           8       1:   54  128:  139    1:   63
           9       1:   54  105:  127    1:   55
          10       1:   54  140:  320   64:   70
          11       1:   54   93:  104    1:   63
          12       1:   54   35:   57   56:   63
          13       1:   54  140:  320    1:   56
          14       1:   54   70:   92   72:  125
          15       1:   54   93:  104   64:  125
          16       1:   54  105:  127   56:   63
          17       1:   54  140:  320   71:  125
          18       1:   54  105:  127   72:  125
          19       1:   54   58:   69   64:  125
          20       1:   54  105:  127   64:   71
          21       1:   54  140:  320   57:   63
          22       1:   54   35:   57   72:  125
          23       1:   54  128:  139   64:  125
          24       1:   54   70:   92   64:   71
Setting up quadratic distribution...
ExtMesh (bp) on 0 =   118 x   116 x   131 =     1793128
PhiOnMesh: Number of (b)points on node 0 =               163296
PhiOnMesh: nlist on node 0 =               686471

stepf: Fermi-Dirac step function

siesta: Program's energy decomposition (eV):
siesta: Ebs     =     -2719.550439
siesta: Eions   =     14463.407838
siesta: Ena     =      3029.370446
siesta: Ekin    =      6448.932862
siesta: Enl     =      -853.142776
siesta: Eso     =         0.000000
siesta: Eldau   =         0.000000
siesta: DEna    =      -253.636235
siesta: DUscf   =        25.227494
siesta: DUext   =         0.000000
siesta: Enegf   =         0.000000
siesta: Exc     =     -2745.145963
siesta: eta*DQ  =         0.000000
siesta: Emadel  =         0.000000
siesta: Emeta   =         0.000000
siesta: Emolmec =         0.000000
siesta: Ekinion =         0.000000
siesta: Eharris =     -8813.615988
siesta: Etot    =     -8811.802008
siesta: FreeEng =     -8811.815885

        iscf     Eharris(eV)        E_KS(eV)     FreeEng(eV)     dDmax    Ef(eV) dHmax(eV)
   scf:    1    -8813.615988    -8811.802008    -8811.815885  0.968035 -5.462975  5.912162
timer: Routine,Calls,Time,% = IterSCF        1      13.435  77.97
   scf:    2    -8814.639434    -8813.324198    -8813.338389  0.011496 -5.134251  4.754692
   scf:    3    -8815.975855    -8814.864564    -8814.879265  0.019366 -4.683213  3.423474
   scf:    4    -8816.633136    -8816.031548    -8816.045034  0.029873 -3.949346  1.646310
   scf:    5    -8816.482234    -8816.316757    -8816.329825  0.019313 -3.709125  0.464971
   scf:    6    -8816.396153    -8816.364628    -8816.377582  0.005067 -3.692487  0.417521
   scf:    7    -8816.361459    -8816.372706    -8816.385122  0.004851 -3.712323  0.480118
   scf:    8    -8816.376583    -8816.384681    -8816.396715  0.006173 -3.698002  0.259073
   scf:    9    -8816.382111    -8816.387545    -8816.399180  0.003402 -3.701273  0.215372
   scf:   10    -8816.392233    -8816.390970    -8816.401999  0.003192 -3.702511  0.083004
   scf:   11    -8816.392649    -8816.391829    -8816.402548  0.001083 -3.703756  0.050656
   scf:   12    -8816.397171    -8816.394346    -8816.403879  0.003309 -3.706970  0.028165
   scf:   13    -8816.396869    -8816.395565    -8816.404383  0.001776 -3.706651  0.024618
   scf:   14    -8816.396860    -8816.396200    -8816.404606  0.000994 -3.706356  0.023184
   scf:   15    -8816.397932    -8816.397046    -8816.404867  0.001323 -3.706039  0.019435
   scf:   16    -8816.397776    -8816.397407    -8816.404969  0.000592 -3.705955  0.018883
   scf:   17    -8816.400343    -8816.398795    -8816.405296  0.002406 -3.705536  0.009475
   scf:   18    -8816.399228    -8816.399009    -8816.405335  0.000387 -3.705449  0.007666
   scf:   19    -8816.400173    -8816.399571    -8816.405407  0.001119 -3.705106  0.005968
   scf:   20    -8816.399685    -8816.399628    -8816.405414  0.000146 -3.705070  0.004431
   scf:   21    -8816.399861    -8816.399743    -8816.405422  0.000252 -3.704973  0.004972
   scf:   22    -8816.399867    -8816.399805    -8816.405426  0.000098 -3.704923  0.004358
   scf:   23    -8816.400217    -8816.400008    -8816.405437  0.000387 -3.704760  0.001874
   scf:   24    -8816.400113    -8816.400061    -8816.405440  0.000098 -3.704704  0.001097
   scf:   25    -8816.400123    -8816.400091    -8816.405439  0.000077 -3.704654  0.000569
   scf:   26    -8816.400119    -8816.400105    -8816.405439  0.000024 -3.704651  0.000538
   scf:   27    -8816.400107    -8816.400106    -8816.405439  0.000024 -3.704665  0.000400
   scf:   28    -8816.400133    -8816.400119    -8816.405440  0.000023 -3.704660  0.000319
   scf:   29    -8816.400149    -8816.400134    -8816.405440  0.000024 -3.704652  0.000237
   scf:   30    -8816.400167    -8816.400151    -8816.405440  0.000028 -3.704643  0.000142
   scf:   31    -8816.400156    -8816.400153    -8816.405440  0.000009 -3.704641  0.000114

SCF Convergence by DM+H criterion
max |DM_out - DM_in|         :     0.0000092316
max |H_out - H_in|      (eV) :     0.0001139372
SCF cycle converged after 31 iterations

Using DM_out to compute the final energy and forces
No. of atoms with KB's overlaping orbs in proc 0. Max # of overlaps:      50     217

siesta: E_KS(eV) =            -8816.4002

siesta: E_KS - E_eggbox =     -8816.4002

siesta: Total spin polarization (Qup-Qdown) =    0.000135

siesta: Atomic forces (eV/Ang):
----------------------------------------
   Tot    0.004578   -0.010672   -0.000000
----------------------------------------
   Max    5.379325
   Res    1.099835    sqrt( Sum f_i^2 / 3N )
----------------------------------------
   Max    5.379325    constrained

Stress-tensor-Voigt (kbar):        1.34        2.13        0.01       -3.05       -0.00        0.00
(Free)E + p*V (eV/cell)    -8822.8267
Target enthalpy (eV/cell)    -8816.4054
 
mulliken: Atomic and Orbital Populations:

mulliken: Spin UP 

Species: H.ca                
Atom  Qatom  Qorb
               1s      1s      1Ppy    1Ppz    1Ppx    
   1  0.622   0.404   0.162   0.025   0.017   0.014
   3  0.626   0.422   0.150   0.024   0.017   0.012
   9  0.625   0.422   0.148   0.024   0.018   0.013
  32  0.623   0.406   0.159   0.017   0.018   0.022
  33  0.623   0.405   0.159   0.017   0.019   0.022
  56  0.625   0.420   0.148   0.024   0.020   0.013
  62  0.624   0.418   0.149   0.024   0.021   0.012
  64  0.621   0.400   0.161   0.025   0.021   0.014

Species: C.ca2               
Atom  Qatom  Qorb
               2s      2s      2py     2pz     2px     2py     2pz     2px     
               2Pdxy   2Pdyz   2Pdz2   2Pdxz   2Pdx2-y2
   2  1.991   0.239   0.248   0.223   0.382   0.223   0.256   0.089   0.252
              0.023   0.015   0.002   0.014   0.026
   4  1.852   0.184   0.272   0.081   0.366   0.250   0.344   0.060   0.235
              0.017   0.005   0.001   0.016   0.021
   5  1.977   0.235   0.250   0.215   0.377   0.215   0.257   0.089   0.261
              0.024   0.015   0.002   0.014   0.025
   6  1.987   0.271   0.235   0.233   0.394   0.257   0.239   0.064   0.219
              0.025   0.015   0.002   0.013   0.021
   7  2.004   0.246   0.247   0.228   0.385   0.232   0.248   0.083   0.255
              0.024   0.015   0.001   0.016   0.024
   8  2.002   0.243   0.246   0.231   0.384   0.227   0.256   0.087   0.248
              0.023   0.017   0.001   0.015   0.025
  10  1.846   0.185   0.273   0.080   0.363   0.252   0.344   0.056   0.234
              0.017   0.004   0.001   0.016   0.021
  11  1.977   0.235   0.250   0.214   0.377   0.210   0.257   0.088   0.266
              0.024   0.014   0.002   0.014   0.025
  12  1.993   0.250   0.244   0.225   0.385   0.227   0.252   0.079   0.251
              0.024   0.015   0.002   0.016   0.024
  13  2.005   0.247   0.246   0.230   0.389   0.230   0.250   0.082   0.251
              0.023   0.015   0.002   0.016   0.024
  14  1.993   0.248   0.244   0.224   0.383   0.235   0.250   0.081   0.247
              0.024   0.016   0.002   0.016   0.023
  15  2.002   0.248   0.245   0.230   0.390   0.229   0.250   0.081   0.251
              0.023   0.015   0.002   0.015   0.023
  16  1.997   0.267   0.236   0.240   0.396   0.253   0.237   0.069   0.222
              0.025   0.016   0.001   0.014   0.021
  17  2.003   0.245   0.247   0.226   0.386   0.232   0.250   0.083   0.254
              0.024   0.016   0.001   0.016   0.024
  18  2.003   0.244   0.245   0.231   0.386   0.227   0.255   0.087   0.247
              0.023   0.017   0.001   0.015   0.025
  19  1.863   0.177   0.277   0.083   0.375   0.240   0.343   0.065   0.241
              0.017   0.004   0.001   0.016   0.021
  20  1.897   0.173   0.281   0.168   0.395   0.151   0.291   0.073   0.305
              0.024   0.010   0.001   0.009   0.015
  21  1.986   0.250   0.243   0.225   0.379   0.227   0.253   0.078   0.251
              0.024   0.015   0.002   0.016   0.024
  22  2.006   0.246   0.246   0.226   0.391   0.233   0.251   0.084   0.251
              0.023   0.015   0.002   0.014   0.024
  23  1.986   0.248   0.244   0.229   0.378   0.229   0.250   0.078   0.250
              0.024   0.016   0.002   0.016   0.023
  24  2.003   0.249   0.245   0.231   0.390   0.229   0.249   0.081   0.251
              0.023   0.015   0.002   0.015   0.024
  25  1.996   0.249   0.244   0.230   0.385   0.228   0.249   0.080   0.250
              0.023   0.016   0.002   0.016   0.024
  26  2.004   0.248   0.245   0.229   0.391   0.230   0.250   0.081   0.250
              0.024   0.016   0.002   0.016   0.023
  27  1.998   0.246   0.245   0.224   0.386   0.234   0.250   0.083   0.248
              0.024   0.016   0.002   0.016   0.023
  28  2.002   0.248   0.245   0.229   0.389   0.229   0.250   0.081   0.250
              0.023   0.015   0.002   0.016   0.023
  29  2.000   0.267   0.236   0.240   0.397   0.255   0.237   0.069   0.221
              0.025   0.016   0.001   0.014   0.021
  30  2.012   0.246   0.247   0.226   0.393   0.233   0.250   0.084   0.253
              0.024   0.015   0.001   0.016   0.024
  31  2.018   0.244   0.248   0.215   0.408   0.229   0.261   0.089   0.245
              0.023   0.016   0.002   0.015   0.025
  34  1.950   0.246   0.243   0.214   0.360   0.228   0.259   0.076   0.243
              0.023   0.016   0.002   0.016   0.025
  35  1.988   0.247   0.245   0.225   0.376   0.233   0.250   0.079   0.253
              0.024   0.016   0.001   0.016   0.024
  36  2.008   0.267   0.236   0.240   0.403   0.256   0.238   0.071   0.222
              0.025   0.015   0.001   0.013   0.021
  37  1.997   0.249   0.244   0.229   0.385   0.229   0.250   0.080   0.250
              0.023   0.016   0.002   0.016   0.023
  38  2.003   0.246   0.245   0.224   0.390   0.235   0.251   0.084   0.248
              0.024   0.016   0.002   0.015   0.023
  39  1.997   0.248   0.245   0.229   0.386   0.230   0.250   0.080   0.249
              0.023   0.016   0.002   0.016   0.023
  40  2.003   0.249   0.245   0.231   0.391   0.229   0.249   0.081   0.251
              0.023   0.015   0.002   0.015   0.024
  41  1.997   0.249   0.244   0.231   0.386   0.228   0.248   0.080   0.250
              0.023   0.016   0.002   0.017   0.024
  42  2.014   0.247   0.246   0.229   0.397   0.229   0.251   0.084   0.251
              0.024   0.016   0.002   0.016   0.023
  43  1.998   0.247   0.244   0.225   0.384   0.232   0.250   0.082   0.250
              0.023   0.017   0.002   0.017   0.024
  44  2.009   0.249   0.245   0.226   0.395   0.227   0.253   0.083   0.251
              0.024   0.014   0.002   0.016   0.024
  45  1.884   0.173   0.279   0.167   0.385   0.150   0.291   0.071   0.304
              0.024   0.012   0.001   0.011   0.015
  46  1.915   0.177   0.280   0.084   0.413   0.241   0.344   0.074   0.242
              0.017   0.004   0.001   0.015   0.021
  47  1.995   0.244   0.245   0.231   0.380   0.227   0.255   0.085   0.246
              0.023   0.017   0.001   0.015   0.025
  48  1.996   0.245   0.246   0.225   0.381   0.231   0.250   0.082   0.254
              0.024   0.016   0.001   0.016   0.024
  49  2.009   0.266   0.237   0.240   0.404   0.254   0.238   0.071   0.223
              0.025   0.015   0.001   0.013   0.021
  50  1.997   0.249   0.244   0.230   0.386   0.229   0.249   0.080   0.250
              0.023   0.016   0.002   0.017   0.023
  51  2.008   0.247   0.245   0.225   0.394   0.235   0.250   0.084   0.248
              0.024   0.016   0.002   0.015   0.023
  52  1.997   0.247   0.245   0.229   0.383   0.229   0.250   0.081   0.251
              0.023   0.016   0.002   0.016   0.024
  53  2.002   0.250   0.244   0.226   0.392   0.227   0.252   0.082   0.252
              0.024   0.014   0.002   0.015   0.024
  54  1.966   0.235   0.248   0.213   0.368   0.210   0.256   0.086   0.264
              0.024   0.015   0.002   0.021   0.025
  55  1.962   0.184   0.279   0.082   0.447   0.253   0.346   0.075   0.236
              0.017   0.004   0.001   0.016   0.021
  57  1.996   0.244   0.245   0.231   0.380   0.227   0.255   0.086   0.247
              0.023   0.017   0.001   0.016   0.025
  58  1.996   0.246   0.246   0.228   0.379   0.232   0.248   0.082   0.255
              0.024   0.016   0.001   0.017   0.024
  59  2.018   0.270   0.237   0.234   0.417   0.257   0.240   0.069   0.220
              0.025   0.015   0.002   0.013   0.021
  60  1.967   0.235   0.248   0.215   0.367   0.214   0.255   0.086   0.259
              0.024   0.016   0.002   0.021   0.024
  61  1.962   0.183   0.278   0.083   0.447   0.252   0.346   0.078   0.236
              0.017   0.005   0.001   0.015   0.021
  63  1.980   0.239   0.246   0.222   0.372   0.222   0.254   0.086   0.251
              0.023   0.018   0.002   0.019   0.026

mulliken: Qtot =      116.000

mulliken: Spin DOWN 

Species: H.ca                
Atom  Qatom  Qorb
               1s      1s      1Ppy    1Ppz    1Ppx    
   1  0.621   0.400   0.161   0.025   0.021   0.014
   3  0.624   0.418   0.149   0.024   0.021   0.012
   9  0.625   0.420   0.148   0.024   0.020   0.013
  32  0.623   0.406   0.159   0.017   0.019   0.022
  33  0.623   0.406   0.159   0.017   0.018   0.022
  56  0.625   0.423   0.148   0.024   0.018   0.013
  62  0.626   0.422   0.150   0.024   0.017   0.012
  64  0.622   0.404   0.162   0.025   0.017   0.014

Species: C.ca2               
Atom  Qatom  Qorb
               2s      2s      2py     2pz     2px     2py     2pz     2px     
               2Pdxy   2Pdyz   2Pdz2   2Pdxz   2Pdx2-y2
   2  1.980   0.239   0.246   0.222   0.372   0.222   0.254   0.086   0.251
              0.023   0.018   0.002   0.019   0.026
   4  1.962   0.183   0.278   0.083   0.447   0.252   0.346   0.078   0.236
              0.017   0.005   0.001   0.015   0.021
   5  1.967   0.235   0.248   0.215   0.367   0.214   0.255   0.086   0.259
              0.024   0.016   0.002   0.021   0.024
   6  2.018   0.270   0.237   0.233   0.417   0.258   0.240   0.069   0.220
              0.025   0.015   0.002   0.013   0.021
   7  1.996   0.246   0.246   0.228   0.379   0.232   0.248   0.082   0.255
              0.024   0.016   0.001   0.017   0.024
   8  1.996   0.244   0.245   0.231   0.380   0.226   0.255   0.086   0.247
              0.023   0.017   0.001   0.016   0.025
  10  1.962   0.184   0.280   0.082   0.447   0.253   0.346   0.075   0.236
              0.017   0.004   0.001   0.016   0.021
  11  1.966   0.235   0.248   0.213   0.368   0.210   0.256   0.086   0.264
              0.024   0.015   0.002   0.021   0.025
  12  2.003   0.250   0.244   0.226   0.392   0.227   0.252   0.082   0.252
              0.024   0.014   0.002   0.015   0.024
  13  1.997   0.247   0.245   0.229   0.383   0.230   0.250   0.081   0.251
              0.023   0.016   0.002   0.016   0.024
  14  2.008   0.247   0.245   0.225   0.394   0.235   0.251   0.084   0.248
              0.024   0.016   0.002   0.015   0.023
  15  1.997   0.248   0.244   0.230   0.386   0.229   0.249   0.080   0.250
              0.023   0.016   0.002   0.017   0.023
  16  2.009   0.266   0.237   0.240   0.404   0.254   0.238   0.071   0.223
              0.025   0.015   0.001   0.013   0.021
  17  1.996   0.245   0.246   0.226   0.381   0.232   0.250   0.082   0.254
              0.024   0.016   0.001   0.016   0.024
  18  1.995   0.244   0.245   0.231   0.380   0.227   0.255   0.085   0.247
              0.023   0.017   0.001   0.015   0.025
  19  1.915   0.177   0.280   0.084   0.413   0.241   0.344   0.074   0.242
              0.017   0.004   0.001   0.015   0.021
  20  1.884   0.173   0.279   0.167   0.385   0.150   0.291   0.071   0.304
              0.024   0.012   0.001   0.011   0.015
  21  2.009   0.249   0.245   0.226   0.395   0.228   0.253   0.083   0.251
              0.024   0.014   0.002   0.016   0.024
  22  1.998   0.246   0.244   0.225   0.384   0.232   0.250   0.082   0.250
              0.023   0.017   0.002   0.017   0.024
  23  2.014   0.247   0.246   0.229   0.397   0.230   0.251   0.084   0.251
              0.024   0.016   0.002   0.016   0.023
  24  1.997   0.249   0.244   0.231   0.386   0.228   0.248   0.080   0.250
              0.023   0.016   0.002   0.017   0.024
  25  2.003   0.249   0.245   0.231   0.391   0.229   0.249   0.081   0.250
              0.023   0.015   0.002   0.015   0.024
  26  1.997   0.248   0.245   0.229   0.386   0.230   0.250   0.080   0.249
              0.024   0.016   0.002   0.016   0.023
  27  2.003   0.246   0.245   0.224   0.390   0.234   0.251   0.084   0.249
              0.024   0.016   0.002   0.015   0.023
  28  1.997   0.249   0.244   0.229   0.385   0.229   0.250   0.080   0.250
              0.023   0.016   0.002   0.016   0.023
  29  2.008   0.267   0.237   0.240   0.403   0.256   0.238   0.071   0.222
              0.025   0.015   0.001   0.013   0.021
  30  1.988   0.247   0.245   0.225   0.376   0.233   0.250   0.079   0.253
              0.024   0.016   0.001   0.016   0.024
  31  1.950   0.246   0.243   0.214   0.360   0.228   0.259   0.076   0.243
              0.023   0.016   0.002   0.016   0.025
  34  2.017   0.244   0.248   0.215   0.408   0.229   0.261   0.089   0.245
              0.023   0.016   0.002   0.015   0.025
  35  2.012   0.246   0.246   0.226   0.393   0.233   0.250   0.084   0.253
              0.024   0.015   0.001   0.016   0.024
  36  2.000   0.267   0.236   0.240   0.398   0.255   0.237   0.069   0.221
              0.025   0.016   0.001   0.014   0.021
  37  2.002   0.248   0.245   0.229   0.389   0.229   0.250   0.081   0.250
              0.023   0.015   0.002   0.016   0.023
  38  1.998   0.246   0.245   0.224   0.386   0.234   0.250   0.083   0.248
              0.024   0.016   0.002   0.016   0.023
  39  2.004   0.248   0.245   0.229   0.391   0.230   0.251   0.081   0.250
              0.023   0.016   0.002   0.016   0.023
  40  1.995   0.249   0.244   0.230   0.385   0.228   0.249   0.080   0.250
              0.023   0.016   0.002   0.016   0.024
  41  2.003   0.249   0.245   0.231   0.390   0.229   0.249   0.081   0.251
              0.023   0.015   0.002   0.015   0.024
  42  1.986   0.248   0.244   0.228   0.378   0.229   0.251   0.078   0.250
              0.024   0.016   0.002   0.016   0.023
  43  2.006   0.246   0.246   0.226   0.391   0.233   0.251   0.084   0.251
              0.023   0.015   0.002   0.014   0.024
  44  1.986   0.250   0.243   0.225   0.379   0.227   0.253   0.078   0.251
              0.024   0.015   0.002   0.016   0.024
  45  1.897   0.173   0.281   0.168   0.395   0.151   0.292   0.073   0.305
              0.024   0.010   0.001   0.009   0.015
  46  1.862   0.177   0.277   0.083   0.375   0.240   0.343   0.065   0.241
              0.017   0.004   0.001   0.016   0.021
  47  2.003   0.244   0.245   0.231   0.386   0.227   0.255   0.087   0.247
              0.023   0.017   0.001   0.015   0.025
  48  2.002   0.245   0.247   0.226   0.386   0.232   0.250   0.083   0.254
              0.024   0.016   0.001   0.016   0.024
  49  1.997   0.267   0.236   0.240   0.396   0.253   0.238   0.069   0.222
              0.025   0.016   0.001   0.014   0.021
  50  2.002   0.248   0.245   0.230   0.390   0.229   0.250   0.081   0.251
              0.023   0.015   0.002   0.015   0.023
  51  1.993   0.248   0.244   0.224   0.383   0.235   0.250   0.081   0.248
              0.024   0.016   0.002   0.016   0.023
  52  2.006   0.247   0.245   0.230   0.389   0.230   0.251   0.082   0.251
              0.024   0.015   0.002   0.016   0.024
  53  1.992   0.250   0.244   0.225   0.385   0.226   0.252   0.079   0.251
              0.024   0.015   0.002   0.016   0.024
  54  1.977   0.235   0.250   0.213   0.377   0.210   0.257   0.088   0.266
              0.024   0.014   0.002   0.014   0.025
  55  1.846   0.185   0.273   0.080   0.363   0.252   0.344   0.056   0.234
              0.017   0.004   0.001   0.016   0.021
  57  2.002   0.243   0.246   0.231   0.384   0.227   0.256   0.087   0.247
              0.023   0.017   0.001   0.015   0.025
  58  2.004   0.246   0.247   0.228   0.385   0.232   0.248   0.083   0.255
              0.024   0.015   0.001   0.016   0.024
  59  1.987   0.271   0.235   0.233   0.394   0.257   0.239   0.064   0.219
              0.025   0.015   0.002   0.013   0.021
  60  1.977   0.235   0.250   0.215   0.377   0.215   0.257   0.089   0.261
              0.024   0.015   0.002   0.014   0.025
  61  1.852   0.184   0.272   0.081   0.366   0.250   0.344   0.060   0.234
              0.017   0.005   0.001   0.016   0.021
  63  1.991   0.239   0.248   0.223   0.382   0.223   0.256   0.089   0.253
              0.023   0.015   0.002   0.014   0.026

mulliken: Qtot =      116.000

                     ====================================
                        Begin CG opt. move =      1
                     ====================================

superc: Internal auxiliary supercell:     3 x     1 x     1  =       3
superc: Number of atoms, orbitals, and projectors:    192   2304   2904

outcell: Unit cell vectors (Ang):
        8.870000    0.000000    0.000000
        0.000000   50.000000    0.000000
        0.000000    0.000000   20.000000

outcell: Cell vector modules (Ang)   :    8.870000   50.000000   20.000000
outcell: Cell angles (23,13,12) (deg):     90.0000     90.0000     90.0000
outcell: Cell volume (Ang**3)        :   8870.0000
<dSpData1D:S at geom step 1
  <sparsity:sparsity for geom step 1
    nrows_g=768 nrows=48 sparsity=.0452 nnzs=26636, refcount: 7>
  <dData1D:(new from dSpData1D) n=26636, refcount: 1>
refcount: 1>
new_DM -- step:     2
Re-using DM from previous geometries...
Number of DMs in history: 1
 DM extrapolation coefficients: 
1   1.00000
New DM after history re-use:
<dSpData2D:SpM extrapolated using coords
  <sparsity:sparsity for geom step 1
    nrows_g=768 nrows=48 sparsity=.0452 nnzs=26636, refcount: 8>
  <dData2D:(temp array for extrapolation) n=26636 m=2, refcount: 1>
refcount: 1>
No. of atoms with KB's overlaping orbs in proc 0. Max # of overlaps:      50     217
New grid distribution:   1
           1       1:   54    1:   80    1:   21
           2       1:   54    1:   80   22:   42
           3       1:   54    1:   80   43:   63
           4       1:   54    1:   80   64:   84
           5       1:   54    1:   80   85:  105
           6       1:   54    1:   80  106:  125
           7       1:   54   81:  160    1:   21
           8       1:   54   81:  160   22:   42
           9       1:   54   81:  160   43:   63
          10       1:   54   81:  160   64:   84
          11       1:   54   81:  160   85:  105
          12       1:   54   81:  160  106:  125
          13       1:   54  161:  240    1:   21
          14       1:   54  161:  240   22:   42
          15       1:   54  161:  240   43:   63
          16       1:   54  161:  240   64:   84
          17       1:   54  161:  240   85:  105
          18       1:   54  161:  240  106:  125
          19       1:   54  241:  320    1:   21
          20       1:   54  241:  320   22:   42
          21       1:   54  241:  320   43:   63
          22       1:   54  241:  320   64:   84
          23       1:   54  241:  320   85:  105
          24       1:   54  241:  320  106:  125

InitMesh: MESH =   108 x   640 x   250 =    17280000
InitMesh: (bp) =    54 x   320 x   125 =     2160000
InitMesh: Mesh cutoff (required, used) =   400.000   409.734 Ry
ExtMesh (bp) on 0 =   118 x   148 x    89 =     1554296
New grid distribution:   2
           1       1:   54    1:   48    1:   63
           2       1:   54  101:  117   68:  125
           3       1:   54   66:   74    1:   63
           4       1:   54   49:   65   64:   67
           5       1:   54    1:   48   64:  125
           6       1:   54   75:   91   60:   63
           7       1:   54   75:   91    1:   59
           8       1:   54  118:  126    1:   63
           9       1:   54  101:  117    1:   59
          10       1:   54   92:  100    1:   63
          11       1:   54   75:   91   68:  125
          12       1:   54   49:   65   60:   63
          13       1:   54  127:  320    1:   58
          14       1:   54   49:   65   68:  125
          15       1:   54   92:  100   64:  125
          16       1:   54  101:  117   60:   63
          17       1:   54  127:  320   68:  125
          18       1:   54  127:  320   59:   63
          19       1:   54   66:   74   64:  125
          20       1:   54  101:  117   64:   67
          21       1:   54   49:   65    1:   59
          22       1:   54  127:  320   64:   67
          23       1:   54  118:  126   64:  125
          24       1:   54   75:   91   64:   67
New grid distribution:   3
           1       1:   54    1:   34    1:   63
           2       1:   54   35:   57    1:   55
           3       1:   54   58:   69    1:   63
           4       1:   54   35:   57   64:   71
           5       1:   54    1:   34   64:  125
           6       1:   54   70:   92   56:   63
           7       1:   54   70:   92    1:   55
           8       1:   54  128:  139    1:   63
           9       1:   54  105:  127    1:   55
          10       1:   54  140:  320   64:   70
          11       1:   54   93:  104    1:   63
          12       1:   54   35:   57   56:   63
          13       1:   54  140:  320    1:   56
          14       1:   54   70:   92   72:  125
          15       1:   54   93:  104   64:  125
          16       1:   54  105:  127   56:   63
          17       1:   54  140:  320   71:  125
          18       1:   54  105:  127   72:  125
          19       1:   54   58:   69   64:  125
          20       1:   54  105:  127   64:   71
          21       1:   54  140:  320   57:   63
          22       1:   54   35:   57   72:  125
          23       1:   54  128:  139   64:  125
          24       1:   54   70:   92   64:   71
Setting up quadratic distribution...
ExtMesh (bp) on 0 =   118 x   116 x   131 =     1793128
PhiOnMesh: Number of (b)points on node 0 =               163296
PhiOnMesh: nlist on node 0 =               686393

        iscf     Eharris(eV)        E_KS(eV)     FreeEng(eV)     dDmax    Ef(eV) dHmax(eV)
   scf:    1    -8817.843790    -8817.545939    -8817.551122  0.007418 -3.719991  0.730717
   scf:    2    -8815.871987    -8817.100219    -8817.104966  0.011870 -3.682039  2.008779
   scf:    3    -8817.788713    -8817.648807    -8817.653704  0.009123 -3.711075  0.078133
   scf:    4    -8817.651486    -8817.650290    -8817.655204  0.000400 -3.711289  0.048960
   scf:    5    -8817.652653    -8817.651718    -8817.656681  0.000358 -3.712093  0.021929
   scf:    6    -8817.652210    -8817.652007    -8817.657027  0.000211 -3.712815  0.007980
   scf:    7    -8817.651986    -8817.651998    -8817.657060  0.000102 -3.713233  0.005626
   scf:    8    -8817.651944    -8817.651971    -8817.657067  0.000081 -3.713430  0.003516
   scf:    9    -8817.651896    -8817.651933    -8817.657071  0.000088 -3.713521  0.002205
   scf:   10    -8817.651902    -8817.651917    -8817.657072  0.000034 -3.713555  0.001950
   scf:   11    -8817.651836    -8817.651876    -8817.657075  0.000082 -3.713627  0.001564
   scf:   12    -8817.651836    -8817.651856    -8817.657076  0.000040 -3.713656  0.001268
   scf:   13    -8817.651824    -8817.651840    -8817.657076  0.000030 -3.713669  0.001095
   scf:   14    -8817.651725    -8817.651782    -8817.657078  0.000105 -3.713711  0.000580
   scf:   15    -8817.651712    -8817.651747    -8817.657078  0.000062 -3.713739  0.000395
   scf:   16    -8817.651707    -8817.651727    -8817.657079  0.000034 -3.713752  0.000347
   scf:   17    -8817.651694    -8817.651710    -8817.657079  0.000028 -3.713759  0.000251
   scf:   18    -8817.651691    -8817.651700    -8817.657079  0.000017 -3.713765  0.000192
   scf:   19    -8817.651693    -8817.651696    -8817.657079  0.000007 -3.713768  0.000149

SCF Convergence by DM+H criterion
max |DM_out - DM_in|         :     0.0000069356
max |H_out - H_in|      (eV) :     0.0001494371
SCF cycle converged after 19 iterations

Using DM_out to compute the final energy and forces
No. of atoms with KB's overlaping orbs in proc 0. Max # of overlaps:      50     217

siesta: E_KS(eV) =            -8817.6517

siesta: Total spin polarization (Qup-Qdown) =    0.000014

siesta: Atomic forces (eV/Ang):
----------------------------------------
   Tot   -0.004920   -0.006442   -0.000000
----------------------------------------
   Max    2.996515
   Res    0.657044    sqrt( Sum f_i^2 / 3N )
----------------------------------------
   Max    2.996515    constrained

Stress-tensor-Voigt (kbar):        1.29        3.64        0.01       -3.43       -0.00        0.00
(Free)E + p*V (eV/cell)    -8826.7563
Target enthalpy (eV/cell)    -8817.6571
 
mulliken: Atomic and Orbital Populations:

mulliken: Spin UP 

Species: H.ca                
Atom  Qatom  Qorb
               1s      1s      1Ppy    1Ppz    1Ppx    
   1  0.622   0.404   0.161   0.025   0.017   0.014
   3  0.625   0.422   0.150   0.024   0.017   0.012
   9  0.625   0.422   0.148   0.024   0.018   0.013
  32  0.623   0.407   0.158   0.017   0.018   0.022
  33  0.622   0.406   0.158   0.017   0.019   0.022
  56  0.625   0.420   0.148   0.024   0.020   0.013
  62  0.624   0.418   0.149   0.024   0.021   0.012
  64  0.621   0.400   0.161   0.025   0.021   0.014

Species: C.ca2               
Atom  Qatom  Qorb
               2s      2s      2py     2pz     2px     2py     2pz     2px     
               2Pdxy   2Pdyz   2Pdz2   2Pdxz   2Pdx2-y2
   2  1.991   0.243   0.248   0.225   0.387   0.224   0.250   0.084   0.253
              0.022   0.015   0.002   0.014   0.025
   4  1.853   0.185   0.272   0.084   0.369   0.250   0.341   0.058   0.233
              0.017   0.005   0.001   0.016   0.021
   5  1.977   0.234   0.250   0.216   0.376   0.215   0.256   0.089   0.262
              0.024   0.015   0.002   0.015   0.024
   6  1.990   0.268   0.237   0.231   0.395   0.250   0.241   0.065   0.227
              0.024   0.015   0.002   0.014   0.022
   7  2.003   0.245   0.246   0.230   0.384   0.230   0.248   0.084   0.256
              0.024   0.015   0.001   0.016   0.024
   8  2.002   0.247   0.245   0.232   0.388   0.228   0.249   0.083   0.250
              0.023   0.016   0.001   0.016   0.024
  10  1.851   0.185   0.274   0.080   0.366   0.252   0.344   0.057   0.235
              0.017   0.004   0.001   0.016   0.021
  11  1.976   0.235   0.250   0.214   0.377   0.210   0.256   0.088   0.266
              0.024   0.014   0.002   0.015   0.025
  12  1.993   0.249   0.244   0.225   0.385   0.227   0.252   0.080   0.251
              0.024   0.015   0.002   0.016   0.024
  13  2.005   0.247   0.245   0.230   0.389   0.230   0.250   0.082   0.252
              0.023   0.015   0.002   0.016   0.024
  14  1.994   0.249   0.244   0.227   0.386   0.234   0.249   0.079   0.246
              0.024   0.016   0.002   0.015   0.023
  15  2.002   0.248   0.245   0.230   0.389   0.229   0.249   0.081   0.251
              0.023   0.015   0.002   0.016   0.023
  16  1.997   0.264   0.238   0.236   0.397   0.246   0.239   0.069   0.230
              0.024   0.015   0.002   0.014   0.022
  17  2.003   0.245   0.246   0.228   0.385   0.230   0.250   0.084   0.255
              0.024   0.016   0.001   0.016   0.024
  18  2.003   0.247   0.245   0.232   0.389   0.228   0.249   0.083   0.250
              0.023   0.016   0.001   0.016   0.024
  19  1.865   0.176   0.277   0.084   0.375   0.238   0.343   0.067   0.244
              0.018   0.004   0.001   0.016   0.021
  20  1.896   0.173   0.280   0.170   0.393   0.148   0.289   0.075   0.308
              0.024   0.009   0.001   0.009   0.015
  21  1.986   0.250   0.243   0.225   0.379   0.227   0.252   0.078   0.251
              0.024   0.015   0.002   0.016   0.024
  22  2.005   0.249   0.245   0.227   0.393   0.233   0.250   0.081   0.249
              0.023   0.015   0.002   0.014   0.024
  23  1.989   0.248   0.244   0.229   0.380   0.229   0.250   0.078   0.250
              0.023   0.016   0.002   0.016   0.024
  24  2.003   0.248   0.245   0.231   0.391   0.230   0.249   0.081   0.250
              0.023   0.015   0.002   0.015   0.024
  25  1.996   0.248   0.244   0.230   0.386   0.229   0.249   0.080   0.250
              0.023   0.016   0.002   0.016   0.023
  26  2.003   0.248   0.245   0.229   0.390   0.230   0.250   0.081   0.250
              0.023   0.016   0.002   0.016   0.023
  27  1.998   0.248   0.244   0.228   0.388   0.233   0.249   0.081   0.247
              0.024   0.016   0.002   0.016   0.023
  28  2.002   0.248   0.245   0.229   0.389   0.229   0.250   0.081   0.251
              0.023   0.015   0.002   0.016   0.023
  29  1.999   0.265   0.238   0.236   0.398   0.248   0.238   0.068   0.229
              0.024   0.015   0.002   0.015   0.022
  30  2.011   0.246   0.246   0.228   0.392   0.231   0.250   0.084   0.254
              0.024   0.015   0.001   0.016   0.024
  31  2.018   0.243   0.248   0.215   0.408   0.227   0.259   0.089   0.248
              0.023   0.015   0.002   0.016   0.024
  34  1.951   0.245   0.244   0.214   0.360   0.226   0.258   0.076   0.247
              0.023   0.016   0.002   0.016   0.024
  35  1.989   0.246   0.245   0.227   0.376   0.230   0.250   0.080   0.254
              0.024   0.016   0.001   0.016   0.024
  36  2.006   0.265   0.238   0.237   0.404   0.249   0.238   0.070   0.230
              0.024   0.015   0.001   0.014   0.022
  37  1.997   0.248   0.245   0.229   0.385   0.229   0.250   0.080   0.251
              0.023   0.016   0.002   0.016   0.023
  38  2.003   0.248   0.245   0.228   0.391   0.234   0.249   0.082   0.247
              0.024   0.016   0.002   0.015   0.023
  39  1.997   0.248   0.245   0.229   0.386   0.230   0.250   0.080   0.250
              0.023   0.016   0.002   0.016   0.023
  40  2.003   0.248   0.245   0.230   0.391   0.229   0.249   0.082   0.250
              0.023   0.015   0.002   0.016   0.023
  41  1.997   0.248   0.244   0.231   0.386   0.229   0.248   0.080   0.250
              0.023   0.016   0.002   0.017   0.024
  42  2.011   0.247   0.246   0.229   0.395   0.229   0.251   0.083   0.251
              0.023   0.015   0.002   0.016   0.024
  43  1.997   0.249   0.244   0.227   0.386   0.233   0.249   0.080   0.248
              0.023   0.016   0.002   0.017   0.024
  44  2.009   0.249   0.245   0.226   0.395   0.228   0.253   0.083   0.252
              0.024   0.014   0.002   0.016   0.024
  45  1.884   0.173   0.279   0.169   0.383   0.148   0.288   0.073   0.308
              0.024   0.012   0.001   0.011   0.015
  46  1.913   0.176   0.279   0.085   0.410   0.239   0.344   0.076   0.245
              0.018   0.004   0.001   0.015   0.021
  47  1.996   0.248   0.245   0.232   0.384   0.228   0.249   0.081   0.249
              0.023   0.016   0.002   0.016   0.024
  48  1.997   0.245   0.246   0.228   0.381   0.229   0.250   0.082   0.255
              0.024   0.016   0.001   0.017   0.024
  49  2.007   0.264   0.239   0.237   0.404   0.247   0.239   0.071   0.231
              0.024   0.015   0.002   0.014   0.022
  50  1.997   0.248   0.244   0.230   0.385   0.229   0.249   0.080   0.250
              0.023   0.016   0.002   0.017   0.023
  51  2.007   0.249   0.245   0.228   0.395   0.234   0.249   0.082   0.247
              0.024   0.015   0.002   0.015   0.023
  52  1.997   0.247   0.245   0.230   0.383   0.229   0.250   0.081   0.251
              0.023   0.016   0.002   0.016   0.024
  53  2.002   0.249   0.244   0.225   0.392   0.227   0.252   0.082   0.252
              0.024   0.014   0.002   0.015   0.024
  54  1.966   0.236   0.248   0.214   0.368   0.209   0.255   0.086   0.264
              0.024   0.015   0.002   0.020   0.024
  55  1.957   0.184   0.279   0.082   0.443   0.253   0.346   0.075   0.237
              0.017   0.004   0.001   0.016   0.021
  57  1.996   0.247   0.245   0.232   0.384   0.228   0.249   0.081   0.250
              0.023   0.016   0.001   0.016   0.024
  58  1.996   0.246   0.246   0.230   0.379   0.229   0.248   0.082   0.256
              0.024   0.016   0.001   0.017   0.024
  59  2.014   0.267   0.239   0.232   0.413   0.250   0.241   0.070   0.228
              0.024   0.014   0.002   0.014   0.022
  60  1.967   0.234   0.248   0.215   0.367   0.214   0.255   0.086   0.259
              0.024   0.016   0.002   0.022   0.024
  61  1.961   0.184   0.278   0.085   0.449   0.252   0.343   0.075   0.235
              0.017   0.005   0.001   0.015   0.021
  63  1.980   0.243   0.245   0.224   0.377   0.223   0.248   0.081   0.252
              0.022   0.017   0.002   0.020   0.025

mulliken: Qtot =      116.000

mulliken: Spin DOWN 

Species: H.ca                
Atom  Qatom  Qorb
               1s      1s      1Ppy    1Ppz    1Ppx    
   1  0.621   0.400   0.161   0.025   0.021   0.014
   3  0.624   0.418   0.149   0.024   0.021   0.012
   9  0.625   0.420   0.148   0.024   0.020   0.013
  32  0.622   0.406   0.158   0.017   0.019   0.022
  33  0.623   0.407   0.158   0.017   0.018   0.022
  56  0.625   0.422   0.148   0.024   0.018   0.013
  62  0.626   0.422   0.150   0.024   0.017   0.012
  64  0.622   0.404   0.161   0.025   0.017   0.014

Species: C.ca2               
Atom  Qatom  Qorb
               2s      2s      2py     2pz     2px     2py     2pz     2px     
               2Pdxy   2Pdyz   2Pdz2   2Pdxz   2Pdx2-y2
   2  1.980   0.243   0.246   0.224   0.377   0.223   0.248   0.081   0.252
              0.022   0.017   0.002   0.020   0.025
   4  1.961   0.184   0.278   0.085   0.449   0.252   0.343   0.075   0.235
              0.017   0.005   0.001   0.015   0.021
   5  1.967   0.234   0.248   0.215   0.367   0.214   0.255   0.086   0.259
              0.024   0.016   0.002   0.022   0.024
   6  2.014   0.267   0.239   0.231   0.413   0.250   0.241   0.070   0.228
              0.024   0.014   0.002   0.014   0.022
   7  1.996   0.245   0.246   0.230   0.379   0.229   0.247   0.082   0.256
              0.024   0.016   0.001   0.017   0.024
   8  1.996   0.247   0.245   0.232   0.384   0.228   0.249   0.081   0.250
              0.023   0.016   0.001   0.016   0.024
  10  1.957   0.183   0.279   0.082   0.443   0.253   0.345   0.075   0.237
              0.017   0.004   0.001   0.016   0.021
  11  1.966   0.236   0.248   0.214   0.368   0.209   0.255   0.086   0.264
              0.024   0.015   0.002   0.020   0.024
  12  2.003   0.249   0.244   0.225   0.392   0.227   0.252   0.082   0.252
              0.024   0.014   0.002   0.015   0.024
  13  1.997   0.247   0.245   0.230   0.383   0.229   0.250   0.081   0.251
              0.023   0.016   0.002   0.016   0.024
  14  2.007   0.249   0.245   0.228   0.395   0.234   0.249   0.082   0.247
              0.024   0.015   0.002   0.015   0.023
  15  1.997   0.248   0.245   0.230   0.385   0.229   0.249   0.080   0.250
              0.023   0.016   0.002   0.017   0.023
  16  2.007   0.264   0.239   0.237   0.404   0.247   0.239   0.071   0.231
              0.024   0.015   0.002   0.014   0.022
  17  1.997   0.245   0.246   0.228   0.381   0.229   0.250   0.082   0.255
              0.024   0.016   0.001   0.017   0.024
  18  1.996   0.248   0.245   0.232   0.384   0.228   0.249   0.081   0.249
              0.023   0.016   0.002   0.016   0.024
  19  1.913   0.176   0.279   0.085   0.410   0.239   0.344   0.076   0.245
              0.018   0.004   0.001   0.015   0.021
  20  1.884   0.173   0.279   0.169   0.383   0.147   0.288   0.073   0.308
              0.024   0.012   0.001   0.011   0.015
  21  2.009   0.249   0.245   0.226   0.395   0.228   0.253   0.083   0.252
              0.024   0.014   0.002   0.016   0.023
  22  1.997   0.249   0.244   0.227   0.386   0.233   0.249   0.080   0.248
              0.023   0.016   0.002   0.017   0.024
  23  2.011   0.247   0.246   0.229   0.395   0.229   0.251   0.083   0.251
              0.023   0.015   0.002   0.016   0.024
  24  1.997   0.248   0.244   0.231   0.386   0.229   0.248   0.080   0.250
              0.023   0.016   0.002   0.017   0.024
  25  2.003   0.248   0.245   0.230   0.391   0.229   0.249   0.082   0.250
              0.023   0.015   0.002   0.016   0.023
  26  1.997   0.248   0.245   0.229   0.386   0.230   0.250   0.080   0.250
              0.023   0.016   0.002   0.016   0.023
  27  2.003   0.248   0.245   0.228   0.391   0.233   0.249   0.082   0.247
              0.024   0.016   0.002   0.015   0.023
  28  1.997   0.248   0.245   0.229   0.385   0.229   0.250   0.080   0.250
              0.023   0.016   0.002   0.016   0.023
  29  2.006   0.265   0.239   0.237   0.404   0.249   0.238   0.070   0.230
              0.024   0.015   0.001   0.014   0.022
  30  1.989   0.246   0.245   0.227   0.376   0.230   0.250   0.080   0.254
              0.024   0.016   0.001   0.016   0.024
  31  1.951   0.245   0.244   0.214   0.360   0.226   0.258   0.076   0.247
              0.023   0.016   0.002   0.016   0.024
  34  2.018   0.243   0.248   0.215   0.408   0.227   0.259   0.089   0.249
              0.023   0.015   0.002   0.016   0.024
  35  2.011   0.246   0.246   0.228   0.392   0.231   0.250   0.084   0.254
              0.024   0.015   0.001   0.016   0.024
  36  1.999   0.266   0.238   0.236   0.398   0.248   0.238   0.068   0.229
              0.024   0.015   0.002   0.015   0.022
  37  2.002   0.248   0.245   0.229   0.389   0.229   0.250   0.081   0.251
              0.023   0.015   0.002   0.016   0.023
  38  1.998   0.248   0.244   0.228   0.388   0.234   0.249   0.081   0.247
              0.024   0.016   0.002   0.016   0.023
  39  2.003   0.248   0.245   0.229   0.390   0.230   0.250   0.081   0.250
              0.023   0.016   0.002   0.016   0.023
  40  1.996   0.248   0.244   0.230   0.386   0.229   0.249   0.080   0.250
              0.023   0.016   0.002   0.016   0.023
  41  2.003   0.248   0.245   0.231   0.391   0.229   0.249   0.081   0.250
              0.023   0.015   0.002   0.015   0.024
  42  1.989   0.248   0.244   0.229   0.380   0.229   0.250   0.078   0.250
              0.023   0.016   0.002   0.016   0.024
  43  2.005   0.249   0.245   0.227   0.392   0.233   0.250   0.081   0.249
              0.023   0.015   0.002   0.014   0.024
  44  1.986   0.250   0.243   0.225   0.379   0.227   0.252   0.079   0.251
              0.024   0.015   0.002   0.016   0.024
  45  1.896   0.173   0.280   0.170   0.393   0.148   0.289   0.075   0.308
              0.024   0.009   0.001   0.009   0.015
  46  1.865   0.176   0.277   0.084   0.375   0.238   0.343   0.067   0.244
              0.018   0.004   0.001   0.016   0.021
  47  2.003   0.247   0.245   0.232   0.389   0.228   0.249   0.083   0.249
              0.023   0.016   0.001   0.016   0.024
  48  2.003   0.245   0.246   0.228   0.385   0.229   0.250   0.084   0.255
              0.024   0.016   0.001   0.016   0.024
  49  1.997   0.264   0.238   0.236   0.397   0.246   0.239   0.069   0.230
              0.024   0.015   0.002   0.014   0.022
  50  2.002   0.248   0.245   0.230   0.389   0.229   0.250   0.081   0.251
              0.023   0.015   0.002   0.016   0.023
  51  1.994   0.249   0.244   0.227   0.386   0.234   0.249   0.079   0.246
              0.024   0.016   0.002   0.015   0.023
  52  2.005   0.247   0.245   0.230   0.389   0.230   0.250   0.082   0.252
              0.023   0.015   0.002   0.016   0.024
  53  1.993   0.249   0.244   0.225   0.385   0.227   0.252   0.080   0.251
              0.024   0.015   0.002   0.016   0.024
  54  1.977   0.235   0.250   0.214   0.377   0.210   0.256   0.088   0.266
              0.024   0.014   0.002   0.015   0.025
  55  1.851   0.185   0.274   0.080   0.366   0.251   0.344   0.057   0.235
              0.017   0.004   0.001   0.016   0.021
  57  2.002   0.247   0.245   0.232   0.388   0.228   0.249   0.083   0.250
              0.023   0.016   0.001   0.016   0.024
  58  2.004   0.245   0.246   0.230   0.384   0.230   0.248   0.084   0.256
              0.024   0.015   0.001   0.016   0.024
  59  1.990   0.267   0.237   0.231   0.395   0.249   0.241   0.066   0.227
              0.024   0.015   0.002   0.014   0.022
  60  1.977   0.234   0.250   0.216   0.376   0.215   0.256   0.089   0.261
              0.024   0.015   0.002   0.015   0.025
  61  1.853   0.185   0.272   0.084   0.369   0.250   0.341   0.058   0.233
              0.017   0.005   0.001   0.016   0.021
  63  1.991   0.243   0.248   0.225   0.387   0.224   0.250   0.084   0.254
              0.022   0.015   0.002   0.014   0.025

mulliken: Qtot =      116.000

                     ====================================
                        Begin CG opt. move =      2
                     ====================================

superc: Internal auxiliary supercell:     3 x     1 x     1  =       3
superc: Number of atoms, orbitals, and projectors:    192   2304   2904

outcell: Unit cell vectors (Ang):
        8.870000    0.000000    0.000000
        0.000000   50.000000    0.000000
        0.000000    0.000000   20.000000

outcell: Cell vector modules (Ang)   :    8.870000   50.000000   20.000000
outcell: Cell angles (23,13,12) (deg):     90.0000     90.0000     90.0000
outcell: Cell volume (Ang**3)        :   8870.0000
<dSpData1D:S at geom step 2
  <sparsity:sparsity for geom step 2
    nrows_g=768 nrows=48 sparsity=.0451 nnzs=26586, refcount: 7>
  <dData1D:(new from dSpData1D) n=26586, refcount: 1>
refcount: 1>
new_DM -- step:     3
Re-using DM from previous geometries...
Number of DMs in history: 1
 DM extrapolation coefficients: 
1   1.00000
New DM after history re-use:
<dSpData2D:SpM extrapolated using coords
  <sparsity:sparsity for geom step 2
    nrows_g=768 nrows=48 sparsity=.0451 nnzs=26586, refcount: 8>
  <dData2D:(temp array for extrapolation) n=26586 m=2, refcount: 1>
refcount: 1>
No. of atoms with KB's overlaping orbs in proc 0. Max # of overlaps:      50     217
New grid distribution:   1
           1       1:   54    1:   80    1:   21
           2       1:   54    1:   80   22:   42
           3       1:   54    1:   80   43:   63
           4       1:   54    1:   80   64:   84
           5       1:   54    1:   80   85:  105
           6       1:   54    1:   80  106:  125
           7       1:   54   81:  160    1:   21
           8       1:   54   81:  160   22:   42
           9       1:   54   81:  160   43:   63
          10       1:   54   81:  160   64:   84
          11       1:   54   81:  160   85:  105
          12       1:   54   81:  160  106:  125
          13       1:   54  161:  240    1:   21
          14       1:   54  161:  240   22:   42
          15       1:   54  161:  240   43:   63
          16       1:   54  161:  240   64:   84
          17       1:   54  161:  240   85:  105
          18       1:   54  161:  240  106:  125
          19       1:   54  241:  320    1:   21
          20       1:   54  241:  320   22:   42
          21       1:   54  241:  320   43:   63
          22       1:   54  241:  320   64:   84
          23       1:   54  241:  320   85:  105
          24       1:   54  241:  320  106:  125

InitMesh: MESH =   108 x   640 x   250 =    17280000
InitMesh: (bp) =    54 x   320 x   125 =     2160000
InitMesh: Mesh cutoff (required, used) =   400.000   409.734 Ry
ExtMesh (bp) on 0 =   118 x   148 x    89 =     1554296
New grid distribution:   2
           1       1:   54    1:   48    1:   63
           2       1:   54   49:   65    1:   59
           3       1:   54   66:   74    1:   63
           4       1:   54  101:  118   64:   67
           5       1:   54    1:   48   64:  125
           6       1:   54  101:  118   60:   63
           7       1:   54   75:   91    1:   59
           8       1:   54  119:  127    1:   63
           9       1:   54  101:  118    1:   59
          10       1:   54   92:  100    1:   63
          11       1:   54   75:   91   68:  125
          12       1:   54   49:   65   64:   67
          13       1:   54  128:  320    1:   58
          14       1:   54   49:   65   68:  125
          15       1:   54   92:  100   64:  125
          16       1:   54   49:   65   60:   63
          17       1:   54  128:  320   68:  125
          18       1:   54  128:  320   59:   63
          19       1:   54  119:  127   64:  125
          20       1:   54   75:   91   64:   67
          21       1:   54  101:  118   68:  125
          22       1:   54  128:  320   64:   67
          23       1:   54   66:   74   64:  125
          24       1:   54   75:   91   60:   63
New grid distribution:   3
           1       1:   54    1:   34    1:   63
           2       1:   54   35:   57    1:   55
           3       1:   54   58:   69    1:   63
           4       1:   54   35:   57   64:   71
           5       1:   54    1:   34   64:  125
           6       1:   54   70:   92   56:   63
           7       1:   54   70:   92    1:   55
           8       1:   54  128:  139    1:   63
           9       1:   54  105:  127    1:   55
          10       1:   54  140:  320   64:   70
          11       1:   54   93:  104    1:   63
          12       1:   54   35:   57   56:   63
          13       1:   54  140:  320    1:   56
          14       1:   54   70:   92   72:  125
          15       1:   54   93:  104   64:  125
          16       1:   54  105:  127   56:   63
          17       1:   54  140:  320   71:  125
          18       1:   54  105:  127   72:  125
          19       1:   54   58:   69   64:  125
          20       1:   54  105:  127   64:   71
          21       1:   54  140:  320   57:   63
          22       1:   54   35:   57   72:  125
          23       1:   54  128:  139   64:  125
          24       1:   54   70:   92   64:   71
Setting up quadratic distribution...
ExtMesh (bp) on 0 =   118 x   116 x   131 =     1793128
PhiOnMesh: Number of (b)points on node 0 =               163296
PhiOnMesh: nlist on node 0 =               685699

        iscf     Eharris(eV)        E_KS(eV)     FreeEng(eV)     dDmax    Ef(eV) dHmax(eV)
   scf:    1    -8817.622512    -8817.850496    -8817.855547  0.014428 -3.745672  0.952666
   scf:    2    -8814.566456    -8816.990145    -8816.994882  0.014850 -3.670595  2.378785
   scf:    3    -8818.374884    -8818.071430    -8818.076177  0.010988 -3.725216  0.085111
   scf:    4    -8818.079424    -8818.076338    -8818.081132  0.000440 -3.724908  0.031295
   scf:    5    -8818.077446    -8818.076948    -8818.081776  0.000218 -3.725428  0.017391
   scf:    6    -8818.077276    -8818.077152    -8818.082018  0.000206 -3.725922  0.007224
   scf:    7    -8818.077158    -8818.077156    -8818.082031  0.000038 -3.725943  0.006121
   scf:    8    -8818.077118    -8818.077140    -8818.082055  0.000122 -3.725952  0.003337
   scf:    9    -8818.077079    -8818.077109    -8818.082061  0.000085 -3.726052  0.002650
   scf:   10    -8818.077076    -8818.077092    -8818.082062  0.000038 -3.726075  0.002282
[...]
         78.98  79.11  80.19  80.36  80.77  81.29  81.38  81.48  81.71  81.83
         82.04  82.22  82.82  83.06  83.17  83.51  84.57  84.92  85.05  86.25
         86.37  87.11  88.53  88.67  89.77  90.22  90.49  90.82  92.21  92.62
         93.53  93.88  94.10  95.74  95.91  97.07  97.89  98.49  99.33  99.93
        100.57 100.89 101.54 101.63 101.75 102.37 102.66 103.71 104.44 104.58
        105.28 105.92 107.62 108.49 108.95 109.12 111.04 111.92 113.37 113.63
        114.02 114.50 116.56 117.40 117.49 117.75 118.19 119.57 120.41 122.67
        122.98 123.70 125.43 125.76 127.95 129.43 130.09 132.07 132.99 133.97
        135.03 135.56 136.57 136.93 137.53 137.90 138.07 138.56 138.73 139.22
        140.50 141.01 143.11 143.76 144.22 144.51 144.66 146.02 148.73 149.67
        150.17 151.28 151.49 153.59 167.50 168.05 195.05 196.39
  51  1 -22.50 -22.49 -22.25 -22.19 -21.85 -21.73 -21.31 -21.10 -20.63 -20.32
        -19.88 -19.86 -19.82 -19.64 -19.57 -19.39 -19.21 -19.17 -18.88 -18.62
        -18.61 -18.40 -18.00 -17.95 -17.80 -17.50 -16.93 -16.90 -16.35 -16.30
        -15.73 -15.45 -15.30 -15.20 -14.95 -14.93 -14.77 -14.54 -14.49 -14.22
        -13.92 -13.85 -13.83 -13.81 -13.60 -13.36 -13.33 -13.18 -13.18 -13.00
        -12.40 -12.40 -12.35 -12.11 -11.49 -11.44 -11.31 -11.23 -11.08 -11.06
        -10.73 -10.72 -10.71 -10.70 -10.43 -10.42 -10.37 -10.36 -10.25 -10.14
        -10.10 -10.08  -9.96  -9.90  -9.88  -9.83  -9.76  -9.71  -9.61  -9.60
         -9.37  -9.34  -9.25  -9.12  -8.89  -8.88  -8.72  -8.60  -8.58  -8.25
         -8.25  -8.21  -8.17  -8.09  -7.75  -7.72  -7.71  -7.67  -7.66  -7.50
         -7.45  -7.41  -7.36  -7.25  -6.98  -6.94  -6.76  -6.45  -6.36  -6.34
         -6.00  -5.98  -5.48  -5.26  -4.65  -4.56  -2.70  -2.60  -2.06  -1.82
         -1.61  -1.55  -1.14  -1.04  -0.88  -0.61  -0.30  -0.25   0.11   0.28
          0.39   0.68   0.70   0.73   1.64   2.00   2.02   2.07   2.52   2.55
          3.09   3.47   3.81   3.87   4.06   4.26   4.27   4.32   4.49   4.50
          4.64   4.73   4.77   4.86   4.93   5.00   5.05   5.17   5.25   5.32
          5.59   5.62   5.70   5.76   5.85   5.95   6.02   6.20   6.36   6.43
          6.53   6.58   6.63   6.90   7.02   7.03   7.26   7.46   7.65   8.11
          8.15   8.18   8.39   8.41   8.49   8.52   8.57   8.59   8.65   8.67
          8.90   9.01   9.03   9.13   9.19   9.21   9.35   9.46   9.67   9.68
          9.81   9.89   9.93  10.00  10.14  10.18  10.27  10.31  10.33  10.34
         10.43  10.50  10.61  10.64  10.71  10.75  10.78  10.90  10.98  11.03
         11.16  11.21  11.29  11.34  11.39  11.42  11.51  11.59  11.65  11.68
         11.70  11.79  11.79  11.88  11.95  11.99  12.05  12.17  12.23  12.26
         12.32  12.36  12.39  12.46  12.47  12.51  12.51  12.55  12.62  12.62
         12.64  12.66  12.77  12.77  12.78  12.82  12.92  12.94  12.96  12.97
         13.03  13.14  13.19  13.22  13.26  13.38  13.46  13.48  13.54  13.61
         13.73  13.75  13.89  13.99  14.07  14.14  14.31  14.34  14.38  14.38
         14.62  14.68  15.00  15.29  15.53  15.81  15.81  15.84  16.13  16.26
         16.41  16.49  16.54  16.67  17.41  17.44  17.57  17.62  17.64  17.82
         18.05  18.06  18.07  18.18  18.28  18.31  18.33  18.33  18.37  18.40
         18.47  18.61  18.62  18.75  18.82  18.95  18.97  18.98  19.02  19.27
         19.28  19.32  19.42  19.51  19.53  19.66  19.73  19.96  20.00  20.13
         20.22  20.50  20.54  20.56  20.58  20.73  20.78  20.80  20.83  20.87
         21.04  21.08  21.14  21.15  21.20  21.24  21.26  21.33  21.42  21.42
         21.43  21.48  21.60  21.61  21.62  21.66  21.75  21.85  21.92  21.93
         21.95  22.00  22.17  22.28  22.36  22.40  22.50  22.59  22.60  22.62
         22.64  22.66  22.84  22.85  22.89  22.93  22.99  23.00  23.02  23.09
         23.27  23.37  23.61  23.64  24.10  24.12  24.31  24.51  24.69  24.72
         24.88  24.95  25.09  25.20  25.32  25.40  25.47  25.77  26.06  26.15
         26.34  26.43  26.52  26.58  26.70  27.10  27.81  28.12  28.40  28.44
         28.61  28.80  29.26  29.50  30.05  30.06  30.50  30.75  31.09  31.18
         31.22  31.28  31.41  31.53  31.77  32.14  32.61  32.65  32.76  33.06
         33.22  33.36  33.61  33.95  34.25  34.34  34.78  34.79  34.85  34.91
         35.15  35.24  35.27  35.36  35.51  35.62  35.64  35.87  35.89  35.95
         36.08  36.14  36.31  36.49  36.58  37.02  37.30  37.43  37.65  37.76
         37.77  37.89  38.53  38.77  39.11  39.30  39.34  39.57  40.55  40.75
         40.89  40.93  41.27  41.69  42.38  42.43  42.73  42.82  43.20  43.29
         43.42  43.51  43.52  43.78  43.92  43.99  44.02  44.28  44.49  44.89
         45.27  45.36  45.42  45.48  45.57  45.64  45.72  46.16  46.31  46.41
         46.45  46.68  46.83  46.89  46.93  47.03  47.28  47.68  47.80  47.86
         48.03  48.26  48.53  48.57  48.67  48.68  48.90  48.98  49.02  49.09
         49.23  49.31  49.50  49.50  49.54  49.64  49.74  49.81  50.24  50.28
         50.32  50.43  50.63  50.71  51.11  51.12  51.30  51.34  51.58  51.60
         51.73  51.86  52.23  52.42  52.67  52.77  52.84  52.97  53.19  53.37
         53.50  53.53  53.76  53.94  54.00  54.14  54.34  54.39  54.62  55.01
         55.05  55.28  55.31  55.54  55.72  56.06  56.09  56.15  56.38  56.38
         56.39  56.52  56.60  57.23  57.31  57.84  57.99  58.02  58.10  58.23
         58.58  58.71  59.26  59.34  59.53  59.58  59.90  60.06  60.09  60.12
         60.28  60.73  60.81  60.96  61.07  61.21  61.35  61.37  61.84  61.85
         62.18  62.36  62.36  62.58  63.02  63.07  63.21  63.41  64.04  64.19
         65.25  65.42  66.53  66.70  66.95  67.00  67.99  68.19  69.52  69.58
         70.02  70.69  70.71  70.79  70.95  71.29  71.55  71.58  71.67  71.74
         71.89  72.07  72.10  72.15  72.32  72.47  73.00  73.22  73.33  73.40
         73.47  73.51  73.84  74.12  74.17  74.20  74.24  74.35  74.41  74.66
         75.00  75.13  75.64  75.65  76.21  76.24  76.75  77.10  77.51  77.76
         79.00  79.10  80.21  80.36  80.78  81.32  81.36  81.63  81.65  81.75
         82.03  82.21  82.82  83.07  83.16  83.49  84.58  84.92  85.05  86.25
         86.38  87.10  88.58  88.68  89.75  90.27  90.57  90.69  92.20  92.61
         93.53  93.94  94.04  95.75  95.88  97.06  97.89  98.49  99.33  99.93
        100.57 100.89 101.55 101.65 101.72 102.42 102.63 103.71 104.51 104.53
        105.27 105.91 107.66 108.49 108.99 109.07 111.10 111.93 113.42 113.97
        113.99 114.19 116.52 117.42 117.45 117.75 118.17 119.87 120.13 122.74
        122.97 123.63 125.43 125.73 127.94 129.63 129.87 132.11 133.01 133.96
        135.01 135.56 136.73 137.00 137.83 137.87 138.06 138.18 138.60 139.23
        140.53 140.97 143.10 143.79 144.22 144.49 144.64 146.02 148.80 149.60
        150.16 151.36 151.41 153.59 167.67 167.89 195.67 195.81
  51  2 -22.50 -22.49 -22.25 -22.19 -21.85 -21.73 -21.31 -21.10 -20.63 -20.32
        -19.88 -19.86 -19.82 -19.64 -19.57 -19.39 -19.21 -19.17 -18.88 -18.62
        -18.61 -18.40 -18.00 -17.95 -17.80 -17.50 -16.93 -16.90 -16.35 -16.30
        -15.73 -15.45 -15.30 -15.20 -14.95 -14.93 -14.77 -14.54 -14.49 -14.22
        -13.92 -13.85 -13.83 -13.81 -13.60 -13.36 -13.33 -13.18 -13.18 -13.00
        -12.40 -12.40 -12.35 -12.11 -11.49 -11.44 -11.31 -11.23 -11.08 -11.06
        -10.73 -10.72 -10.71 -10.70 -10.43 -10.42 -10.37 -10.36 -10.25 -10.14
        -10.10 -10.08  -9.96  -9.90  -9.88  -9.83  -9.76  -9.71  -9.61  -9.60
         -9.37  -9.34  -9.25  -9.12  -8.89  -8.88  -8.72  -8.60  -8.58  -8.25
         -8.25  -8.21  -8.17  -8.09  -7.75  -7.72  -7.71  -7.67  -7.66  -7.50
         -7.45  -7.41  -7.36  -7.25  -6.98  -6.94  -6.76  -6.45  -6.36  -6.34
         -6.00  -5.98  -5.48  -5.26  -4.65  -4.56  -2.70  -2.60  -2.06  -1.82
         -1.61  -1.55  -1.14  -1.04  -0.88  -0.61  -0.30  -0.25   0.11   0.28
          0.39   0.68   0.70   0.73   1.64   2.00   2.02   2.07   2.52   2.55
          3.09   3.47   3.81   3.87   4.06   4.26   4.27   4.32   4.49   4.50
          4.64   4.73   4.77   4.86   4.93   5.00   5.05   5.17   5.25   5.32
          5.59   5.62   5.70   5.76   5.85   5.95   6.02   6.20   6.36   6.43
          6.53   6.58   6.63   6.90   7.02   7.03   7.26   7.46   7.65   8.11
          8.15   8.18   8.39   8.41   8.49   8.52   8.57   8.59   8.65   8.67
          8.90   9.01   9.03   9.13   9.19   9.21   9.35   9.46   9.67   9.68
          9.81   9.89   9.93  10.00  10.14  10.18  10.27  10.31  10.33  10.34
         10.43  10.50  10.61  10.64  10.71  10.75  10.78  10.90  10.98  11.03
         11.16  11.21  11.29  11.34  11.39  11.42  11.51  11.59  11.65  11.68
         11.70  11.79  11.79  11.88  11.95  11.99  12.05  12.17  12.23  12.26
         12.32  12.36  12.39  12.46  12.47  12.51  12.51  12.55  12.62  12.62
         12.64  12.66  12.77  12.77  12.78  12.82  12.92  12.94  12.96  12.97
         13.03  13.14  13.19  13.22  13.26  13.38  13.46  13.48  13.54  13.61
         13.73  13.75  13.89  13.99  14.07  14.14  14.31  14.34  14.38  14.38
         14.62  14.68  15.00  15.29  15.53  15.81  15.81  15.84  16.13  16.26
         16.41  16.49  16.54  16.67  17.41  17.44  17.57  17.62  17.64  17.82
         18.05  18.06  18.07  18.18  18.28  18.31  18.33  18.33  18.37  18.40
         18.47  18.61  18.62  18.75  18.82  18.95  18.97  18.98  19.02  19.27
         19.28  19.32  19.42  19.51  19.53  19.66  19.73  19.96  20.00  20.13
         20.22  20.50  20.54  20.56  20.58  20.73  20.78  20.80  20.83  20.87
         21.04  21.08  21.14  21.15  21.20  21.24  21.26  21.33  21.42  21.42
         21.43  21.48  21.60  21.61  21.62  21.66  21.75  21.85  21.92  21.93
         21.95  22.00  22.17  22.28  22.36  22.40  22.50  22.59  22.60  22.62
         22.64  22.66  22.84  22.85  22.89  22.93  22.99  23.00  23.02  23.09
         23.27  23.37  23.61  23.64  24.10  24.12  24.31  24.51  24.69  24.72
         24.88  24.95  25.09  25.20  25.32  25.40  25.47  25.77  26.06  26.15
         26.34  26.43  26.52  26.58  26.70  27.10  27.81  28.12  28.40  28.44
         28.61  28.80  29.26  29.50  30.05  30.06  30.50  30.75  31.09  31.18
         31.22  31.28  31.41  31.53  31.77  32.14  32.61  32.65  32.76  33.06
         33.22  33.36  33.61  33.95  34.25  34.34  34.78  34.79  34.85  34.91
         35.15  35.24  35.27  35.36  35.51  35.62  35.64  35.87  35.89  35.95
         36.08  36.14  36.31  36.49  36.58  37.02  37.30  37.43  37.65  37.76
         37.77  37.89  38.53  38.77  39.11  39.30  39.34  39.57  40.55  40.75
         40.89  40.93  41.27  41.69  42.38  42.43  42.73  42.82  43.20  43.29
         43.42  43.51  43.52  43.78  43.92  43.99  44.02  44.28  44.49  44.89
         45.27  45.36  45.42  45.48  45.57  45.64  45.72  46.16  46.31  46.41
         46.45  46.68  46.83  46.89  46.93  47.03  47.28  47.68  47.80  47.86
         48.03  48.26  48.53  48.57  48.67  48.68  48.90  48.98  49.02  49.09
         49.23  49.31  49.50  49.50  49.54  49.64  49.74  49.81  50.24  50.28
         50.32  50.43  50.63  50.71  51.11  51.12  51.30  51.34  51.58  51.60
         51.73  51.86  52.23  52.42  52.67  52.77  52.84  52.97  53.19  53.37
         53.50  53.53  53.76  53.94  54.00  54.14  54.34  54.39  54.62  55.01
         55.05  55.28  55.31  55.54  55.72  56.06  56.09  56.15  56.38  56.38
         56.39  56.52  56.60  57.23  57.31  57.84  57.99  58.02  58.10  58.23
         58.58  58.71  59.26  59.34  59.53  59.58  59.90  60.06  60.09  60.12
         60.28  60.73  60.81  60.96  61.07  61.21  61.35  61.37  61.84  61.85
         62.18  62.36  62.36  62.58  63.02  63.07  63.21  63.41  64.04  64.19
         65.25  65.42  66.53  66.70  66.95  67.00  67.99  68.19  69.52  69.58
         70.02  70.69  70.71  70.79  70.95  71.29  71.55  71.58  71.67  71.74
         71.89  72.07  72.10  72.15  72.32  72.47  73.00  73.22  73.33  73.40
         73.47  73.51  73.84  74.12  74.17  74.20  74.24  74.35  74.41  74.66
         75.00  75.13  75.64  75.65  76.21  76.24  76.75  77.10  77.51  77.76
         79.00  79.10  80.21  80.36  80.78  81.32  81.36  81.63  81.65  81.75
         82.03  82.21  82.82  83.07  83.16  83.49  84.58  84.92  85.05  86.25
         86.38  87.10  88.58  88.68  89.75  90.27  90.57  90.69  92.20  92.61
         93.53  93.94  94.04  95.75  95.88  97.06  97.89  98.49  99.33  99.93
        100.57 100.89 101.55 101.65 101.72 102.42 102.63 103.71 104.51 104.53
        105.27 105.91 107.66 108.49 108.99 109.07 111.10 111.93 113.42 113.97
        113.99 114.19 116.52 117.42 117.45 117.75 118.17 119.87 120.13 122.74
        122.97 123.63 125.43 125.73 127.94 129.63 129.87 132.11 133.01 133.96
        135.01 135.56 136.73 137.00 137.83 137.87 138.06 138.18 138.60 139.23
        140.53 140.97 143.10 143.79 144.22 144.49 144.64 146.02 148.80 149.60
        150.16 151.36 151.41 153.59 167.67 167.89 195.67 195.81
siesta: Fermi energy =      -3.682963 eV

siesta: Program's energy decomposition (eV):
siesta: Ebs     =     -2916.060982
siesta: Eions   =     14463.407838
siesta: Ena     =      3025.520061
siesta: Ekin    =      6304.211978
siesta: Enl     =      -817.703745
siesta: Eso     =         0.000000
siesta: Eldau   =         0.000000
siesta: DEna    =      -161.582968
siesta: DUscf   =        15.578732
siesta: DUext   =         0.000000
siesta: Enegf   =         0.000000
siesta: Exc     =     -2721.676998
siesta: eta*DQ  =         0.000000
siesta: Emadel  =         0.000000
siesta: Emeta   =         0.000000
siesta: Emolmec =         0.000000
siesta: Ekinion =         0.000000
siesta: Eharris =     -8819.060777
siesta: Etot    =     -8819.060777
siesta: FreeEng =     -8819.066500

siesta: Final energy (eV):
siesta:  Band Struct. =   -2916.060982
siesta:       Kinetic =    6304.211978
siesta:       Hartree =   87273.775804
siesta:       Eldau   =       0.000000
siesta:       Eso     =       0.000000
siesta:    Ext. field =       0.000000
siesta:       Enegf   =       0.000000
siesta:   Exch.-corr. =   -2721.676998
siesta:  Ion-electron = -180209.474830
siesta:       Ion-ion =   80534.103268
siesta:       Ekinion =       0.000000
siesta:         Total =   -8819.060777
siesta:         Fermi =      -3.682963

siesta: Stress tensor (static) (eV/Ang**3):
siesta:     0.000448   -0.000011   -0.000000
siesta:    -0.000011    0.000009    0.000000
siesta:    -0.000000   -0.000000    0.000004

siesta: Cell volume =       8870.000000 Ang**3

siesta: Pressure (static):
siesta:                Solid            Molecule  Units
siesta:          -0.00000167         -0.00000166  Ry/Bohr**3
siesta:          -0.00015353         -0.00015268  eV/Ang**3
siesta:          -0.24599030         -0.24461711  kBar
(Free)E+ p_basis*V_orbitals  =       -8800.519954
(Free)Eharris+ p_basis*V_orbitals  =       -8800.519954

siesta: Total spin polarization (Qup-Qdown) =    0.000012

siesta: Electric dipole (a.u.)  =   -0.000000    0.000186   -0.000000
siesta: Electric dipole (Debye) =   -0.000000    0.000474   -0.000000

Hirshfeld Net Atomic Populations:
Atom #    Qatom  Species
     1    0.026  H.ca                
     2    0.003  C.ca2               
     3    0.029  H.ca                
     4   -0.037  C.ca2               
     5    0.004  C.ca2               
     6    0.000  C.ca2               
     7    0.001  C.ca2               
     8   -0.000  C.ca2               
     9    0.033  H.ca                
    10   -0.035  C.ca2               
    11    0.005  C.ca2               
    12    0.002  C.ca2               
    13    0.000  C.ca2               
    14    0.000  C.ca2               
    15   -0.000  C.ca2               
    16   -0.000  C.ca2               
    17   -0.000  C.ca2               
    18    0.000  C.ca2               
    19   -0.032  C.ca2               
    20   -0.034  C.ca2               
    21    0.003  C.ca2               
    22    0.000  C.ca2               
    23   -0.000  C.ca2               
    24   -0.000  C.ca2               
    25   -0.000  C.ca2               
    26   -0.000  C.ca2               
    27   -0.000  C.ca2               
    28   -0.000  C.ca2               
    29   -0.001  C.ca2               
    30   -0.001  C.ca2               
    31    0.005  C.ca2               
    32    0.030  H.ca                
    33    0.030  H.ca                
    34    0.005  C.ca2               
    35   -0.001  C.ca2               
    36   -0.001  C.ca2               
    37   -0.000  C.ca2               
    38   -0.000  C.ca2               
    39   -0.000  C.ca2               
    40   -0.000  C.ca2               
    41   -0.000  C.ca2               
    42   -0.000  C.ca2               
    43    0.000  C.ca2               
    44    0.003  C.ca2               
    45   -0.034  C.ca2               
    46   -0.032  C.ca2               
    47    0.000  C.ca2               
    48   -0.000  C.ca2               
    49   -0.000  C.ca2               
    50   -0.000  C.ca2               
    51    0.000  C.ca2               
    52    0.000  C.ca2               
    53    0.002  C.ca2               
    54    0.005  C.ca2               
    55   -0.035  C.ca2               
    56    0.033  H.ca                
    57   -0.000  C.ca2               
    58    0.001  C.ca2               
    59    0.000  C.ca2               
    60    0.004  C.ca2               
    61   -0.037  C.ca2               
    62    0.029  H.ca                
    63    0.003  C.ca2               
    64    0.026  H.ca                

Voronoi Net Atomic Populations:
Atom #    Qatom  Species
     1    0.006  H.ca                
     2    0.002  C.ca2               
     3    0.004  H.ca                
     4   -0.014  C.ca2               
     5    0.004  C.ca2               
     6    0.002  C.ca2               
     7    0.002  C.ca2               
     8   -0.002  C.ca2               
     9    0.009  H.ca                
    10   -0.011  C.ca2               
    11    0.006  C.ca2               
    12    0.000  C.ca2               
    13   -0.001  C.ca2               
    14    0.002  C.ca2               
    15   -0.001  C.ca2               
    16   -0.002  C.ca2               
    17   -0.001  C.ca2               
    18    0.001  C.ca2               
    19   -0.009  C.ca2               
    20   -0.008  C.ca2               
    21    0.005  C.ca2               
    22   -0.003  C.ca2               
    23   -0.001  C.ca2               
    24    0.001  C.ca2               
    25    0.001  C.ca2               
    26   -0.001  C.ca2               
    27   -0.000  C.ca2               
    28    0.000  C.ca2               
    29   -0.001  C.ca2               
    30   -0.004  C.ca2               
    31    0.006  C.ca2               
    32    0.009  H.ca                
    33    0.007  H.ca                
    34    0.006  C.ca2               
    35   -0.001  C.ca2               
    36   -0.003  C.ca2               
    37    0.001  C.ca2               
    38    0.001  C.ca2               
    39   -0.003  C.ca2               
    40   -0.002  C.ca2               
    41    0.003  C.ca2               
    42    0.001  C.ca2               
    43   -0.001  C.ca2               
    44    0.001  C.ca2               
    45   -0.011  C.ca2               
    46   -0.006  C.ca2               
    47   -0.002  C.ca2               
    48    0.002  C.ca2               
    49    0.001  C.ca2               
    50   -0.002  C.ca2               
    51    0.000  C.ca2               
    52    0.001  C.ca2               
    53    0.003  C.ca2               
    54    0.006  C.ca2               
    55   -0.013  C.ca2               
    56    0.008  H.ca                
    57    0.000  C.ca2               
    58   -0.000  C.ca2               
    59    0.001  C.ca2               
    60    0.005  C.ca2               
    61   -0.014  C.ca2               
    62    0.005  H.ca                
    63    0.001  C.ca2               
    64    0.005  H.ca                
>> End of run:  16-APR-2018  19:00:44
Job completed
Job completed
