Siesta Version  : siesta-4.1--852
Architecture    : unknown
Compiler version: ifort (IFORT) 17.0.4 20170411
Compiler flags  : mpiifort -O1 -xHost -mp1 -fpp -ftz -I/scicomp/easybuild/CentOS/7.3.1611/Hasweell/software/imkl/2017.3.196-iimpi-2017b/mkl/include -I/scratch/scicomp/easybuild/CentOS/7.3.1611/Haswell/software/netCDF-Fortran/4.4.4-intel-2017b/include -I/scratch/scicomp/easybuild/CentOS/7.3.1611/Haswell/software/netCDF/4.4.1.1-intel-2017b/include
PP flags        :  -DFC_HAVE_ABORT -DMPI -DCDF -DNCDF -DNCDF_4 -DGRID_DP -DNCDF_PARALLEL
Libraries       : libncdf.a libfdict.a -L/scratch/scicomp/easybuild/CentOS/7.3.1611/Haswell/sofftware/netCDF-Fortran/4.4.4-intel-2017b/lib -lnetcdff -L/scratch/scicomp/easybuild/CentOS/7.3.1611/Haswell/software/cURL/7.56.0-GCCcore-6.4.0/lib -lcurl -L/scratch/scicomp/easybuild/CentOS/7.3.1611/Haswell/software/netCDF/4.4.1.1-intel-2017b/lib64 -lnetcdf -L/scratch/scicomp/easybuild/CentOS/7.3.1611/Haswell/software/HDF5/1.10.1-intel-2017b/lib -lhdf5hl_fortran -lhdf5_fortran -lhdf5_hl -lhdf5 -L/scratch/scicomp/easybuild/CentOS/7.3.1611/Haswell/software/Szip/2.1.1-GCCcore-6.4.0/lib -lsz -L/scratch/scicomp/easybuild/CentOS/7.3.1611/Haswell/software/zlib/1.2.11-GCCcore-6.4.0/lib -lz /scicomp/easybuild/CentOS/7.3.1611/Haswell/software/imkl/2017.3.196-iimpi-2017b/mkl/lib/intel64/libmkl_scalapack_lp64.a -Wl,--start-group /scicomp/easybuild/CentOS/7.3.1611/Haswell/software/imkl/2017.3.196-iimpi-2017b/mkl/lib/intel64/libmkl_intel_lp64.a /scicomp/easybuild/CentOS/7.3.1611/Haswell/software/imkl/2017.3.196-iimpi-2017b/mkl/lib/intel64/libmkl_sequential.a /scicomp/easybuild/CentOS/7.3.1611/Haswell/software/imkl/2017.3.196-iimpi-2017b/mkl/lib/intel64/libmkl_core.a /scicomp/easybuild/CentOS/7.3.1611/Haswell/software/imkl/2017.3.196-iimpi-2017b/mkl/lib/intel64/libmkl_blacs_intelmpi_lp64.a -Wl,--end-group -lpthread -lm -ldl
PARALLEL version
NetCDF support
NetCDF-4 support
NetCDF-4 MPI-IO support

* Running on 24 nodes in parallel
>> Start of run:  16-APR-2018  23:15:03

                           ***********************       
                           *  WELCOME TO SIESTA  *       
                           ***********************       

reinit: Reading from standard input
reinit: Dumped input in INPUT_TMP.53215
************************** Dump of input data file ****************************
SystemTitle molecule
SystemLabel molecule
SolutionMethod     diagon
TS.HS.Save         true
MD.TypeOfRun  CG
MD.TypeOfRun  Broyden
MD.Broyden.Cycle.On.Maxit F
MD.NumCGsteps  1000
MD.MaxForceTol 0.002 eV/Ang
Diag.ParallelOverK true
%block kgrid_Monkhorst_Pack
 100    0    0    0.0
  0    1    0    0.0
  0    0    1    0.0
%endblock kgrid_Monkhorst_Pack
MaxSCFIterations      3000
SCFMustConverge       true
DM.Tolerance          1.d-5
DM.UseSaveDM          true
DM.NumberPulay	      7
DM.MixingWeight       0.1
MD.UseSaveXV          true
XC.functional         GGA
XC.authors     	      PBE
MeshCutoff            400. Ry
PAO.BasisSize   DZP
PAO.BasisType   split
%block ChemicalSpeciesLabel
    1   1 H.mpn
    2   6 C.mpn
%endblock ChemicalSpeciesLabel
%include STRUCT.fdf
SpinPolarized   true
#FixSpin  true
#Spin.Fix true
#Spin.Total 0
#TotalSpin  0
%block DM.InitSpin
55   1.
10  -1.
%endblock DM.InitSpin
WriteMullikenPop 1
WriteHirshfeldPop true
WriteVoronoiPop true
WriteEigenvalues true
WriteWaveFunctions true
************************** End of input data file *****************************

reinit: -----------------------------------------------------------------------
reinit: System Name: 
reinit: -----------------------------------------------------------------------
reinit: System Label: molecule
reinit: -----------------------------------------------------------------------

initatom: Reading input for the pseudopotentials and atomic orbitals ----------
Species number:   1 Atomic number:    1 Label: H.mpn
Species number:   2 Atomic number:    6 Label: C.mpn
 
Ground state valence configuration:   1s01
Reading pseudopotential information in unformatted form from H.mpn.vps

Pseudopotential generated from a relativistic atomic calculation

Valence configuration for pseudopotential generation:
1s( 1.00) rc: 1.25
2p( 0.00) rc: 1.25
3d( 0.00) rc: 1.25
4f( 0.00) rc: 1.19
Ground state valence configuration:   2s02  2p02
Reading pseudopotential information in unformatted form from C.mpn.vps

Pseudopotential generated from a relativistic atomic calculation

Valence configuration for pseudopotential generation:
2s( 2.00) rc: 1.25
2p( 2.00) rc: 1.25
3d( 0.00) rc: 1.98
4f( 0.00) rc: 1.98
For H.mpn, standard SIESTA heuristics set lmxkb to 2
 (one more than the basis l, including polarization orbitals).
Use PS.lmax or PS.KBprojectors blocks to override.
For C.mpn, standard SIESTA heuristics set lmxkb to 3
 (one more than the basis l, including polarization orbitals).
Use PS.lmax or PS.KBprojectors blocks to override.

<basis_specs>
===============================================================================
H.mpn                Z=   1    Mass=  1.0100        Charge= 0.17977+309
Lmxo=0 Lmxkb= 2    BasisType=split      Semic=F
L=0  Nsemic=0  Cnfigmx=1
          n=1  nzeta=2  polorb=1
            splnorm:   0.15000    
               vcte:    0.0000    
               rinn:    0.0000    
               qcoe:    0.0000    
               qyuk:    0.0000    
               qwid:   0.10000E-01
                rcs:    0.0000      0.0000    
            lambdas:    1.0000      1.0000    
-------------------------------------------------------------------------------
L=0  Nkbl=1  erefs: 0.17977+309
L=1  Nkbl=1  erefs: 0.17977+309
L=2  Nkbl=1  erefs: 0.17977+309
===============================================================================
</basis_specs>

atom: Called for H.mpn                 (Z =   1)

read_vps: Pseudopotential generation method:
read_vps: ATM3      Troullier-Martins                       
Total valence charge:    1.00000

xc_check: Exchange-correlation functional:
xc_check: GGA Perdew, Burke & Ernzerhof 1996
V l=0 = -2*Zval/r beyond r=  1.2343
V l=1 = -2*Zval/r beyond r=  1.2189
V l=2 = -2*Zval/r beyond r=  1.2189
All V_l potentials equal beyond r=  1.2343
This should be close to max(r_c) in ps generation
All pots = -2*Zval/r beyond r=  1.2343

VLOCAL1: 99.0% of the norm of Vloc inside     28.493 Ry
VLOCAL1: 99.9% of the norm of Vloc inside     64.935 Ry
atom: Maximum radius for 4*pi*r*r*local-pseudopot. charge    1.45251
atom: Maximum radius for r*vlocal+2*Zval:    1.21892
GHOST: No ghost state for L =  0
GHOST: No ghost state for L =  1
GHOST: No ghost state for L =  2

KBgen: Kleinman-Bylander projectors: 
   l= 0   rc=  1.398961   el= -0.477184   Ekb= -2.022489   kbcos= -0.344760
   l= 1   rc=  1.730774   el=  0.001076   Ekb= -0.447448   kbcos= -0.022756
   l= 2   rc=  2.036604   el=  0.002010   Ekb= -0.163621   kbcos= -0.002660

KBgen: Total number of  Kleinman-Bylander projectors:    9
atom: -------------------------------------------------------------------------

atom: SANKEY-TYPE ORBITALS:
atom: Selected multiple-zeta basis: split     

SPLIT: Orbitals with angular momentum L= 0

SPLIT: Basis orbitals for state 1s

SPLIT: PAO cut-off radius determined from an
SPLIT: energy shift=  0.020000 Ry

   izeta = 1
                 lambda =    1.000000
                     rc =    4.708991
                 energy =   -0.457736
                kinetic =    0.981128
    potential(screened) =   -1.438864
       potential(ionic) =   -1.967294

   izeta = 2
                 rmatch =    3.759707
              splitnorm =    0.150000
                 energy =   -0.338971
                kinetic =    1.585754
    potential(screened) =   -1.924724
       potential(ionic) =   -2.475189

POLgen: Perturbative polarization orbital with L=  1

POLgen: Polarization orbital for state 1s

   izeta = 1
                     rc =    4.708991
                 energy =    0.764910
                kinetic =    1.475806
    potential(screened) =   -0.710896
       potential(ionic) =   -1.203352
atom: Total number of Sankey-type orbitals:  5

atm_pop: Valence configuration (for local Pseudopot. screening):
 1s( 1.00)                                                            
Vna: chval, zval:    1.00000   1.00000

Vna:  Cut-off radius for the neutral-atom potential:   4.708991

atom: _________________________________________________________________________

<basis_specs>
===============================================================================
C.mpn                Z=   6    Mass=  12.010        Charge= 0.17977+309
Lmxo=1 Lmxkb= 3    BasisType=split      Semic=F
L=0  Nsemic=0  Cnfigmx=2
          n=1  nzeta=2  polorb=0
            splnorm:   0.15000    
               vcte:    0.0000    
               rinn:    0.0000    
               qcoe:    0.0000    
               qyuk:    0.0000    
               qwid:   0.10000E-01
                rcs:    0.0000      0.0000    
            lambdas:    1.0000      1.0000    
L=1  Nsemic=0  Cnfigmx=2
          n=1  nzeta=2  polorb=1
            splnorm:   0.15000    
               vcte:    0.0000    
               rinn:    0.0000    
               qcoe:    0.0000    
               qyuk:    0.0000    
               qwid:   0.10000E-01
                rcs:    0.0000      0.0000    
            lambdas:    1.0000      1.0000    
-------------------------------------------------------------------------------
L=0  Nkbl=1  erefs: 0.17977+309
L=1  Nkbl=1  erefs: 0.17977+309
L=2  Nkbl=1  erefs: 0.17977+309
L=3  Nkbl=1  erefs: 0.17977+309
===============================================================================
</basis_specs>

atom: Called for C.mpn                 (Z =   6)

read_vps: Pseudopotential generation method:
read_vps: ATM3      Troullier-Martins                       
Total valence charge:    4.00000

xc_check: Exchange-correlation functional:
xc_check: GGA Perdew, Burke & Ernzerhof 1996
V l=0 = -2*Zval/r beyond r=  1.5418
V l=1 = -2*Zval/r beyond r=  1.5418
V l=2 = -2*Zval/r beyond r=  1.9553
V l=3 = -2*Zval/r beyond r=  1.9310
All V_l potentials equal beyond r=  1.9310
This should be close to max(r_c) in ps generation
All pots = -2*Zval/r beyond r=  1.9553

VLOCAL1: 99.0% of the norm of Vloc inside     11.642 Ry
VLOCAL1: 99.9% of the norm of Vloc inside     26.531 Ry
atom: Maximum radius for 4*pi*r*r*local-pseudopot. charge    2.30035
atom: Maximum radius for r*vlocal+2*Zval:    2.00478
GHOST: No ghost state for L =  0
GHOST: No ghost state for L =  1
GHOST: No ghost state for L =  2
GHOST: No ghost state for L =  3

KBgen: Kleinman-Bylander projectors: 
   l= 0   rc=  2.134104   el= -1.010225   Ekb= 11.465766   kbcos=  0.116141
   l= 1   rc=  2.107589   el= -0.388560   Ekb= -6.457899   kbcos= -0.368830
   l= 2   rc=  2.300349   el=  0.001971   Ekb= -0.774314   kbcos= -0.017397
   l= 3   rc=  2.542323   el=  0.003065   Ekb= -0.308789   kbcos= -0.003148

KBgen: Total number of  Kleinman-Bylander projectors:   16
atom: -------------------------------------------------------------------------

atom: SANKEY-TYPE ORBITALS:
atom: Selected multiple-zeta basis: split     

SPLIT: Orbitals with angular momentum L= 0

SPLIT: Basis orbitals for state 2s

SPLIT: PAO cut-off radius determined from an
SPLIT: energy shift=  0.020000 Ry

   izeta = 1
                 lambda =    1.000000
                     rc =    4.088342
                 energy =   -0.989563
                kinetic =    0.944133
    potential(screened) =   -1.933696
       potential(ionic) =   -5.541314

   izeta = 2
                 rmatch =    3.347176
              splitnorm =    0.150000
                 energy =   -0.831414
                kinetic =    1.451472
    potential(screened) =   -2.282886
       potential(ionic) =   -6.119280

SPLIT: Orbitals with angular momentum L= 1

SPLIT: Basis orbitals for state 2p

SPLIT: PAO cut-off radius determined from an
SPLIT: energy shift=  0.020000 Ry

   izeta = 1
                 lambda =    1.000000
                     rc =    4.870301
                 energy =   -0.368749
                kinetic =    2.591962
    potential(screened) =   -2.960711
       potential(ionic) =   -6.464403

   izeta = 2
                 rmatch =    3.475094
              splitnorm =    0.150000
                 energy =   -0.206255
                kinetic =    3.888945
    potential(screened) =   -4.095199
       potential(ionic) =   -7.968192

POLgen: Perturbative polarization orbital with L=  2

POLgen: Polarization orbital for state 2p

   izeta = 1
                     rc =    4.870301
                 energy =    1.295231
                kinetic =    2.621946
    potential(screened) =   -1.326714
       potential(ionic) =   -4.277432
atom: Total number of Sankey-type orbitals: 13

atm_pop: Valence configuration (for local Pseudopot. screening):
 2s( 2.00)                                                            
 2p( 2.00)                                                            
Vna: chval, zval:    4.00000   4.00000

Vna:  Cut-off radius for the neutral-atom potential:   4.870301

atom: _________________________________________________________________________

prinput: Basis input ----------------------------------------------------------

PAO.BasisType split     

%block ChemicalSpeciesLabel
    1    1 H.mpn                   # Species index, atomic number, species label
    2    6 C.mpn                   # Species index, atomic number, species label
%endblock ChemicalSpeciesLabel

%block PAO.Basis                 # Define Basis set
H.mpn                 1                    # Species label, number of l-shells
 n=1   0   2 P   1                   # n, l, Nzeta, Polarization, NzetaPol
   4.709      3.760   
   1.000      1.000   
C.mpn                 2                    # Species label, number of l-shells
 n=2   0   2                         # n, l, Nzeta 
   4.088      3.347   
   1.000      1.000   
 n=2   1   2 P   1                   # n, l, Nzeta, Polarization, NzetaPol
   4.870      3.475   
   1.000      1.000   
%endblock PAO.Basis

prinput: ----------------------------------------------------------------------

Dumping basis to NetCDF file H.mpn.ion.nc
Dumping basis to NetCDF file C.mpn.ion.nc
coor:   Atomic-coordinates input format  =     Cartesian coordinates
coor:                                          (in Angstroms)

siesta: WARNING: XV file not found

siesta: Atomic coordinates (Bohr) and species
siesta:     21.86909  11.65753  18.89727  1        1
siesta:     20.22953  15.45275  18.89727  2        2
siesta:     26.28943  10.55732  18.89727  1        3
siesta:     22.27399  13.69511  18.89727  2        4
siesta:     24.87046  14.39619  18.89727  2        5
siesta:     20.87295  18.13730  18.89727  2        6
siesta:     23.55037  18.85268  18.89727  2        7
siesta:     22.15632  23.29350  18.89727  2        8
siesta:     30.77142   9.42818  18.89727  1        9
siesta:     26.78931  12.58227  18.89727  2       10
siesta:     29.34110  13.27273  18.89727  2       11
siesta:     25.51370  17.00793  18.89727  2       12
siesta:     28.08987  17.74408  18.89727  2       13
siesta:     24.20547  21.46420  18.89727  2       14
siesta:     26.80879  22.19784  18.89727  2       15
siesta:     22.81797  25.94566  18.89727  2       16
siesta:     25.50574  26.65688  18.89727  2       17
siesta:     24.10469  31.10180  18.89727  2       18
siesta:     31.28226  11.44691  18.89727  2       19
siesta:     33.79390  12.17213  18.89727  2       20
siesta:     30.01338  15.88251  18.89727  2       21
siesta:     32.61908  16.59430  18.89727  2       22
siesta:     28.74096  20.34565  18.89727  2       23
siesta:     31.32776  21.07740  18.89727  2       24
siesta:     27.45407  24.79645  18.89727  2       25
siesta:     30.04023  25.53693  18.89727  2       26
siesta:     26.15395  29.26551  18.89727  2       27
siesta:     28.75484  29.99728  18.89727  2       28
siesta:     24.76485  33.75698  18.89727  2       29
siesta:     27.45442  34.46316  18.89727  2       30
siesta:     26.08069  38.92680  18.89727  2       31
siesta:     25.48533  43.00000  18.89727  1       32
siesta:     35.24004  10.67500  18.89727  1       33
siesta:     34.64500  14.74813  18.89727  2       34
siesta:     33.27158  19.21191  18.89727  2       35
siesta:     35.96123  19.91818  18.89727  2       36
siesta:     31.97097  23.67786  18.89727  2       37
siesta:     34.57175  24.40926  18.89727  2       38
siesta:     30.68540  28.13832  18.89727  2       39
siesta:     33.27152  28.87854  18.89727  2       40
siesta:     29.39833  32.59759  18.89727  2       41
siesta:     31.98527  33.32901  18.89727  2       42
siesta:     28.10726  37.08072  18.89727  2       43
siesta:     30.71245  37.79329  18.89727  2       44
siesta:     26.93151  41.50295  18.89727  2       45
siesta:     29.44322  42.22868  18.89727  2       46
siesta:     36.62135  22.57357  18.89727  2       47
siesta:     35.22018  27.01802  18.89727  2       48
siesta:     37.90753  27.72947  18.89727  2       49
siesta:     33.91738  31.47690  18.89727  2       50
siesta:     36.52045  32.21051  18.89727  2       51
siesta:     32.63592  35.93120  18.89727  2       52
siesta:     35.21201  36.66676  18.89727  2       53
siesta:     31.38454  40.40272  18.89727  2       54
siesta:     33.93657  41.09270  18.89727  2       55
siesta:     29.95311  44.24736  18.89727  1       56
siesta:     38.56942  30.38187  18.89727  2       57
siesta:     37.17548  34.82200  18.89727  2       58
siesta:     39.85313  35.53797  18.89727  2       59
siesta:     35.85498  39.27848  18.89727  2       60
siesta:     38.45172  39.97962  18.89727  2       61
siesta:     34.43724  43.11764  18.89727  1       62
siesta:     40.49653  38.22250  18.89727  2       63
siesta:     38.85524  42.01737  18.89727  1       64

siesta: System type = chain     

initatomlists: Number of atoms, orbitals, and projectors:     64   768   968

siesta: ******************** Simulation parameters ****************************
siesta:
siesta: The following are some of the parameters of the simulation.
siesta: A complete list of the parameters used, including default values,
siesta: can be found in file out.fdf
siesta:
redata: Spin configuration                          = collinear
redata: Number of spin components                   = 2
redata: Time-Reversal Symmetry                      = T
redata: Spin-spiral                                 = F
redata: Long output                                 =   F
redata: Number of Atomic Species                    =        2
redata: Charge density info will appear in .RHO file
redata: Write Mulliken Pop.                         = Atomic and Orbital charges
redata: Mesh Cutoff                                 =   400.0000 Ry
redata: Net charge of the system                    =     0.0000 |e|
redata: Min. number of SCF Iter                     =        0
redata: Max. number of SCF Iter                     =     3000
redata: SCF convergence failure will abort job
redata: SCF mix quantity                            = Hamiltonian
redata: Mix DM or H after convergence               =   F
redata: Recompute H after scf cycle                 =   F
redata: Mix DM in first SCF step                    =   T
redata: Write Pulay info on disk                    =   F
redata: New DM Mixing Weight                        =     0.1000
redata: New DM Occupancy tolerance                  = 0.000000000001
redata: No kicks to SCF
redata: DM Mixing Weight for Kicks                  =     0.5000
redata: Require Harris convergence for SCF          =   F
redata: Harris energy tolerance for SCF             =     0.000100 eV
redata: Require DM convergence for SCF              =   T
redata: DM tolerance for SCF                        =     0.000010
redata: Require EDM convergence for SCF             =   F
redata: EDM tolerance for SCF                       =     0.001000 eV
redata: Require H convergence for SCF               =   T
redata: Hamiltonian tolerance for SCF               =     0.001000 eV
redata: Require (free) Energy convergence for SCF   =   F
redata: (free) Energy tolerance for SCF             =     0.000100 eV
redata: Antiferro initial spin density              =   F
redata: Using Saved Data (generic)                  =   F
redata: Use continuation files for DM               =   T
redata: Neglect nonoverlap interactions             =   F
redata: Method of Calculation                       = Diagonalization
redata: Electronic Temperature                      =   299.9869 K
redata: Fix the spin of the system                  =   F
redata: Dynamics option                             = CG coord. optimization
redata: Variable cell                               =   F
redata: Use continuation files for CG               =   F
redata: Max atomic displ per move                   =     0.1058 Ang
redata: Maximum number of CG moves                  =     1000
redata: Force tolerance                             =     0.0020 eV/Ang
mix.SCF: Pulay mixing                            = Pulay
mix.SCF:    Variant                              = stable
mix.SCF:    History steps                        = 7
mix.SCF:    Linear mixing weight                 =     0.100000
mix.SCF:    Mixing weight                        =     0.100000
mix.SCF:    SVD condition                        = 0.1000E-07
mix.SCF: Spin-component mixing                   all
redata: Save all siesta data in one NC              =   F
redata: ***********************************************************************

%block SCF.Mixers
  Pulay
%endblock SCF.Mixers

%block SCF.Mixer.Pulay
  # Mixing method
  method pulay
  variant stable

  # Mixing options
  weight 0.1000
  weight.linear 0.1000
  history 7
%endblock SCF.Mixer.Pulay
 
DM_history_depth set to one: no extrapolation allowed by default for geometry relaxation
Size of DM history Fstack: 1
Total number of electrons:   232.000000
Total ionic charge:   232.000000

* ProcessorY, Blocksize:    4  24


* Orbital distribution balance (max,min):    48    24

k-point displ. along   1 input, could be:     0.00    0.50
 Kpoints in:           51 . Kpoints trimmed:           51

siesta: k-grid: Number of k-points =    51
siesta: k-grid: Cutoff (effective) =    10.000 Ang
siesta: k-grid: Supercell and displacements
siesta: k-grid:  100   0   0      0.000
siesta: k-grid:    0   1   0      0.000
siesta: k-grid:    0   0   1      0.000
 
diag: Algorithm                                     = D&C
diag: Parallel over k                               =   T
diag: Use parallel 2D distribution                  =   T
diag: Parallel block-size                           = 24
diag: Parallel distribution                         =     4 x     6
diag: Used triangular part                          = Lower
diag: Absolute tolerance                            =  0.100E-15
diag: Orthogonalization factor                      =  0.100E-05
diag: Memory factor                                 =  1.0000

superc: Internal auxiliary supercell:     3 x     1 x     1  =       3
superc: Number of atoms, orbitals, and projectors:    192   2304   2904
 
 
ts: **************************************************************
ts: Save H and S matrices                           =    T
ts: Save DM and EDM matrices                        =    F
ts: Fix Hartree potential                           =    F
ts: Only save the overlap matrix S                  =    F
ts: **************************************************************
 
************************ Begin: TS CHECKS AND WARNINGS ************************
************************ End: TS CHECKS AND WARNINGS **************************


                     ====================================
                        Begin CG opt. move =      0
                     ====================================

superc: Internal auxiliary supercell:     3 x     1 x     1  =       3
superc: Number of atoms, orbitals, and projectors:    192   2304   2904

outcell: Unit cell vectors (Ang):
        8.970000    0.000000    0.000000
        0.000000   50.000000    0.000000
        0.000000    0.000000   20.000000

outcell: Cell vector modules (Ang)   :    8.970000   50.000000   20.000000
outcell: Cell angles (23,13,12) (deg):     90.0000     90.0000     90.0000
outcell: Cell volume (Ang**3)        :   8970.0000
<dSpData1D:S at geom step 0
  <sparsity:sparsity for geom step 0
    nrows_g=768 nrows=48 sparsity=.0469 nnzs=27660, refcount: 7>
  <dData1D:(new from dSpData1D) n=27660, refcount: 1>
refcount: 1>
new_DM -- step:     1
Initializing Density Matrix...
 
Attempting to read DM from file... Failed...
DM filled with atomic data (user-defined):
<dSpData2D:DM initialized from atoms
  <sparsity:sparsity for geom step 0
    nrows_g=768 nrows=48 sparsity=.0469 nnzs=27660, refcount: 8>
  <dData2D:DM n=27660 m=2, refcount: 1>
refcount: 1>

initDM: Initial spin polarization (Qup-Qdown) =    0.000000

No. of atoms with KB's overlaping orbs in proc 0. Max # of overlaps:      53     217
New grid distribution:   1
           1       1:   54    1:   80    1:   21
           2       1:   54    1:   80   22:   42
           3       1:   54    1:   80   43:   63
           4       1:   54    1:   80   64:   84
           5       1:   54    1:   80   85:  105
           6       1:   54    1:   80  106:  125
           7       1:   54   81:  160    1:   21
           8       1:   54   81:  160   22:   42
           9       1:   54   81:  160   43:   63
          10       1:   54   81:  160   64:   84
          11       1:   54   81:  160   85:  105
          12       1:   54   81:  160  106:  125
          13       1:   54  161:  240    1:   21
          14       1:   54  161:  240   22:   42
          15       1:   54  161:  240   43:   63
          16       1:   54  161:  240   64:   84
          17       1:   54  161:  240   85:  105
          18       1:   54  161:  240  106:  125
          19       1:   54  241:  320    1:   21
          20       1:   54  241:  320   22:   42
          21       1:   54  241:  320   43:   63
          22       1:   54  241:  320   64:   84
          23       1:   54  241:  320   85:  105
          24       1:   54  241:  320  106:  125

InitMesh: MESH =   108 x   640 x   250 =    17280000
InitMesh: (bp) =    54 x   320 x   125 =     2160000
InitMesh: Mesh cutoff (required, used) =   400.000   400.649 Ry
ExtMesh (bp) on 0 =   118 x   148 x    89 =     1554296
New grid distribution:   2
           1       1:   54    1:   48    1:   63
           2       1:   54  101:  117   68:  125
           3       1:   54   66:   74    1:   63
           4       1:   54   49:   65   64:   67
           5       1:   54    1:   48   64:  125
           6       1:   54   75:   91   60:   63
           7       1:   54   75:   91    1:   59
           8       1:   54  118:  126    1:   63
           9       1:   54  101:  117    1:   59
          10       1:   54   92:  100    1:   63
          11       1:   54   75:   91   68:  125
          12       1:   54   49:   65   60:   63
          13       1:   54  127:  320    1:   58
          14       1:   54   49:   65   68:  125
          15       1:   54   92:  100   64:  125
          16       1:   54  101:  117   60:   63
          17       1:   54  127:  320   68:  125
          18       1:   54  127:  320   59:   63
          19       1:   54   66:   74   64:  125
          20       1:   54  101:  117   64:   67
          21       1:   54   49:   65    1:   59
          22       1:   54  127:  320   64:   67
          23       1:   54  118:  126   64:  125
          24       1:   54   75:   91   64:   67
New grid distribution:   3
           1       1:   54    1:   35    1:   63
           2       1:   54   36:   58    1:   55
           3       1:   54  127:  138   64:  125
           4       1:   54   70:   92   56:   63
           5       1:   54    1:   35   64:  125
           6       1:   54   70:   92   64:   71
           7       1:   54   70:   92    1:   55
           8       1:   54  127:  138    1:   63
           9       1:   54  104:  126    1:   55
          10       1:   54  139:  320   64:   70
          11       1:   54   93:  104   64:  125
          12       1:   54   36:   58   64:   71
          13       1:   54  139:  320    1:   56
          14       1:   54   70:   92   72:  125
          15       1:   54   93:  103    1:   63
          16       1:   54   36:   58   56:   63
          17       1:   54  139:  320   71:  125
          18       1:   54   36:   58   72:  125
          19       1:   54   59:   69    1:   63
          20       1:   54  104:  126   56:   63
          21       1:   54  139:  320   57:   63
          22       1:   54  105:  126   72:  125
          23       1:   54   59:   69   64:  125
          24       1:   54  105:  126   64:   71
Setting up quadratic distribution...
ExtMesh (bp) on 0 =   118 x   116 x   131 =     1793128
PhiOnMesh: Number of (b)points on node 0 =               163296
PhiOnMesh: nlist on node 0 =               647104

stepf: Fermi-Dirac step function

siesta: Program's energy decomposition (eV):
siesta: Ebs     =     -2683.886617
siesta: Eions   =     11444.555761
siesta: Ena     =      1131.266048
siesta: Ekin    =      6559.496892
siesta: Enl     =     -2079.984665
siesta: Eso     =         0.000000
siesta: Eldau   =         0.000000
siesta: DEna    =      -198.755862
siesta: DUscf   =        21.613786
siesta: DUext   =         0.000000
siesta: Enegf   =         0.000000
siesta: Exc     =     -2773.497220
siesta: eta*DQ  =         0.000000
siesta: Emadel  =         0.000000
siesta: Emeta   =         0.000000
siesta: Emolmec =         0.000000
siesta: Ekinion =         0.000000
siesta: Eharris =     -8816.341055
siesta: Etot    =     -8784.416782
siesta: FreeEng =     -8784.418014

        iscf     Eharris(eV)        E_KS(eV)     FreeEng(eV)     dDmax    Ef(eV) dHmax(eV)
   scf:    1    -8816.341055    -8784.416782    -8784.418014  0.966693 -4.997932  5.119529
timer: Routine,Calls,Time,% = IterSCF        1      14.043  78.85
   scf:    2    -8786.402345    -8785.450466    -8785.451276  0.008885 -4.728949  3.991098
   scf:    3    -8788.500639    -8787.282533    -8787.283076  0.031810 -3.777784  1.636750
   scf:    4    -8787.847042    -8787.620838    -8787.621349  0.021513 -3.395479  0.398559
   scf:    5    -8787.696443    -8787.664325    -8787.664801  0.004236 -3.376530  0.266423
   scf:    6    -8787.676756    -8787.671754    -8787.672175  0.002261 -3.398849  0.154966
   scf:    7    -8787.691111    -8787.682121    -8787.682492  0.003830 -3.382353  0.082421
   scf:    8    -8787.688196    -8787.685064    -8787.685384  0.001889 -3.387225  0.052498
   scf:    9    -8787.689494    -8787.687088    -8787.687356  0.002000 -3.391062  0.037757
   scf:   10    -8787.689038    -8787.688001    -8787.688238  0.001378 -3.387605  0.024987
   scf:   11    -8787.688443    -8787.688213    -8787.688440  0.000408 -3.387138  0.019879
   scf:   12    -8787.688870    -8787.688515    -8787.688722  0.000725 -3.386790  0.013021
   scf:   13    -8787.688777    -8787.688639    -8787.688836  0.000363 -3.386829  0.010894
   scf:   14    -8787.689066    -8787.688825    -8787.689003  0.000690 -3.386451  0.006047
   scf:   15    -8787.688942    -8787.688880    -8787.689051  0.000241 -3.386187  0.004668
   scf:   16    -8787.688998    -8787.688933    -8787.689096  0.000305 -3.385998  0.004207
   scf:   17    -8787.689026    -8787.688973    -8787.689128  0.000308 -3.385768  0.004874
   scf:   18    -8787.689038    -8787.689001    -8787.689150  0.000197 -3.385370  0.003193
   scf:   19    -8787.689021    -8787.689010    -8787.689157  0.000103 -3.385223  0.002226
   scf:   20    -8787.689017    -8787.689013    -8787.689159  0.000036 -3.385160  0.001888
   scf:   21    -8787.689022    -8787.689017    -8787.689162  0.000049 -3.385079  0.001475
   scf:   22    -8787.689021    -8787.689019    -8787.689163  0.000026 -3.385074  0.001271
   scf:   23    -8787.689031    -8787.689025    -8787.689166  0.000089 -3.385074  0.000677
   scf:   24    -8787.689027    -8787.689025    -8787.689166  0.000035 -3.385069  0.000346
   scf:   25    -8787.689026    -8787.689026    -8787.689166  0.000023 -3.385073  0.000407
   scf:   26    -8787.689027    -8787.689027    -8787.689167  0.000014 -3.385077  0.000353
   scf:   27    -8787.689027    -8787.689027    -8787.689167  0.000011 -3.385068  0.000273
   scf:   28    -8787.689028    -8787.689027    -8787.689167  0.000013 -3.385057  0.000194
   scf:   29    -8787.689028    -8787.689028    -8787.689167  0.000010 -3.385049  0.000134

SCF Convergence by DM+H criterion
max |DM_out - DM_in|         :     0.0000098228
max |H_out - H_in|      (eV) :     0.0001336977
SCF cycle converged after 29 iterations

Using DM_out to compute the final energy and forces
No. of atoms with KB's overlaping orbs in proc 0. Max # of overlaps:      53     217

siesta: E_KS(eV) =            -8787.6890

siesta: E_KS - E_eggbox =     -8787.6890

siesta: Total spin polarization (Qup-Qdown) =    0.000001

siesta: Atomic forces (eV/Ang):
----------------------------------------
   Tot   -0.003383   -0.051092   -0.000000
----------------------------------------
   Max    3.283203
   Res    0.962026    sqrt( Sum f_i^2 / 3N )
----------------------------------------
   Max    3.283203    constrained

Stress-tensor-Voigt (kbar):       -4.31       -8.33        0.01        0.04       -0.00        0.00
(Free)E + p*V (eV/cell)    -8764.1234
Target enthalpy (eV/cell)    -8787.6892
 
mulliken: Atomic and Orbital Populations:

mulliken: Spin UP 

Species: H.mpn               
Atom  Qatom  Qorb
               1s      1s      1Ppy    1Ppz    1Ppx    
   1  0.619   0.419   0.152   0.023   0.015   0.012
   3  0.621   0.430   0.143   0.022   0.015   0.011
   9  0.620   0.431   0.139   0.021   0.016   0.012
  32  0.619   0.422   0.146   0.017   0.016   0.018
  33  0.618   0.420   0.146   0.017   0.017   0.018
  56  0.619   0.428   0.139   0.021   0.019   0.012
  62  0.618   0.424   0.142   0.022   0.020   0.011
  64  0.617   0.412   0.151   0.022   0.020   0.012

Species: C.mpn               
Atom  Qatom  Qorb
               2s      2s      2py     2pz     2px     2py     2pz     2px     
               2Pdxy   2Pdyz   2Pdz2   2Pdxz   2Pdx2-y2
   2  2.003   0.231   0.264   0.223   0.399   0.219   0.248   0.087   0.263
              0.021   0.013   0.001   0.013   0.021
   4  1.820   0.202   0.272   0.082   0.346   0.248   0.341   0.043   0.233
              0.014   0.004   0.001   0.015   0.020
   5  1.985   0.223   0.267   0.210   0.384   0.210   0.262   0.093   0.266
              0.021   0.014   0.001   0.012   0.022
   6  1.985   0.240   0.257   0.228   0.377   0.228   0.252   0.079   0.250
              0.020   0.016   0.001   0.015   0.022
   7  2.010   0.244   0.258   0.235   0.400   0.230   0.249   0.079   0.245
              0.021   0.014   0.001   0.014   0.021
   8  2.007   0.235   0.262   0.231   0.391   0.222   0.247   0.086   0.261
              0.021   0.014   0.001   0.016   0.021
  10  1.836   0.195   0.276   0.073   0.352   0.246   0.348   0.051   0.240
              0.015   0.005   0.001   0.016   0.020
  11  1.982   0.224   0.266   0.208   0.380   0.204   0.263   0.094   0.272
              0.021   0.014   0.001   0.014   0.022
  12  1.986   0.237   0.259   0.221   0.377   0.225   0.258   0.080   0.255
              0.021   0.015   0.001   0.015   0.021
  13  2.009   0.233   0.263   0.225   0.390   0.224   0.257   0.087   0.257
              0.021   0.015   0.001   0.015   0.021
  14  1.991   0.244   0.257   0.236   0.386   0.225   0.246   0.075   0.250
              0.021   0.015   0.001   0.015   0.020
  15  2.008   0.234   0.262   0.227   0.393   0.225   0.255   0.085   0.254
              0.021   0.015   0.001   0.015   0.021
  16  1.992   0.238   0.259   0.230   0.381   0.227   0.252   0.081   0.250
              0.020   0.015   0.001   0.015   0.022
  17  2.009   0.245   0.258   0.233   0.401   0.231   0.250   0.078   0.243
              0.021   0.015   0.001   0.014   0.021
  18  2.007   0.235   0.261   0.231   0.392   0.224   0.246   0.085   0.260
              0.021   0.014   0.001   0.016   0.021
  19  1.856   0.186   0.280   0.077   0.371   0.233   0.346   0.063   0.245
              0.015   0.004   0.001   0.016   0.019
  20  1.913   0.189   0.283   0.158   0.414   0.155   0.292   0.069   0.301
              0.022   0.008   0.001   0.009   0.013
  21  1.980   0.239   0.258   0.223   0.374   0.224   0.256   0.079   0.253
              0.021   0.015   0.002   0.015   0.021
  22  2.012   0.243   0.259   0.233   0.399   0.225   0.248   0.080   0.254
              0.021   0.013   0.001   0.013   0.021
  23  1.986   0.235   0.260   0.225   0.376   0.224   0.255   0.080   0.255
              0.021   0.015   0.001   0.016   0.021
  24  2.009   0.234   0.263   0.226   0.394   0.226   0.256   0.085   0.254
              0.021   0.015   0.001   0.014   0.021
  25  1.989   0.235   0.261   0.225   0.379   0.226   0.255   0.081   0.253
              0.021   0.016   0.001   0.015   0.021
  26  2.006   0.234   0.262   0.226   0.391   0.225   0.255   0.085   0.255
              0.021   0.015   0.001   0.015   0.021
  27  1.993   0.243   0.257   0.235   0.387   0.226   0.246   0.076   0.249
              0.021   0.015   0.001   0.015   0.020
  28  2.009   0.234   0.262   0.227   0.394   0.226   0.255   0.085   0.254
              0.021   0.015   0.001   0.015   0.021
  29  1.991   0.238   0.259   0.230   0.380   0.227   0.252   0.080   0.250
              0.020   0.016   0.001   0.016   0.022
  30  2.024   0.245   0.258   0.233   0.413   0.233   0.250   0.080   0.242
              0.021   0.014   0.001   0.014   0.021
  31  2.035   0.232   0.263   0.219   0.420   0.222   0.252   0.095   0.259
              0.022   0.013   0.001   0.016   0.020
  34  1.937   0.237   0.256   0.219   0.350   0.221   0.249   0.073   0.257
              0.022   0.014   0.001   0.017   0.020
  35  1.978   0.247   0.254   0.233   0.380   0.233   0.249   0.070   0.241
              0.021   0.015   0.001   0.015   0.021
  36  2.010   0.237   0.261   0.231   0.394   0.227   0.253   0.084   0.252
              0.020   0.015   0.001   0.014   0.022
  37  1.990   0.235   0.261   0.227   0.380   0.226   0.254   0.081   0.253
              0.021   0.016   0.001   0.015   0.021
  38  2.008   0.242   0.259   0.236   0.398   0.226   0.246   0.079   0.250
              0.021   0.014   0.001   0.015   0.020
  39  1.994   0.235   0.261   0.226   0.382   0.225   0.255   0.082   0.254
              0.021   0.016   0.001   0.016   0.021
  40  2.010   0.234   0.262   0.226   0.394   0.226   0.255   0.085   0.254
              0.021   0.015   0.001   0.015   0.021
  41  1.991   0.235   0.260   0.226   0.380   0.226   0.254   0.081   0.253
              0.021   0.016   0.001   0.016   0.021
  42  2.014   0.234   0.263   0.226   0.396   0.225   0.256   0.087   0.255
              0.021   0.015   0.001   0.015   0.021
  43  1.989   0.245   0.256   0.233   0.381   0.225   0.246   0.075   0.252
              0.021   0.016   0.001   0.017   0.021
  44  2.020   0.237   0.261   0.223   0.402   0.225   0.258   0.088   0.254
              0.021   0.014   0.001   0.014   0.021
  45  1.875   0.191   0.279   0.157   0.384   0.155   0.290   0.063   0.299
              0.022   0.011   0.001   0.011   0.013
  46  1.931   0.184   0.285   0.079   0.427   0.234   0.347   0.076   0.246
              0.015   0.004   0.000   0.014   0.019
  47  1.993   0.236   0.260   0.231   0.381   0.224   0.246   0.082   0.259
              0.022   0.015   0.001   0.016   0.021
  48  1.993   0.245   0.256   0.233   0.389   0.231   0.249   0.074   0.242
              0.021   0.015   0.001   0.015   0.021
  49  2.008   0.237   0.261   0.230   0.393   0.227   0.253   0.085   0.251
              0.020   0.015   0.001   0.015   0.022
  50  1.992   0.235   0.261   0.227   0.381   0.225   0.254   0.081   0.253
              0.021   0.016   0.001   0.016   0.021
  51  2.011   0.243   0.259   0.236   0.400   0.225   0.247   0.079   0.251
              0.021   0.014   0.001   0.015   0.020
  52  1.990   0.235   0.261   0.225   0.376   0.225   0.255   0.083   0.256
              0.021   0.016   0.001   0.016   0.021
  53  2.012   0.236   0.262   0.222   0.396   0.225   0.259   0.086   0.255
              0.021   0.014   0.001   0.015   0.021
  54  1.953   0.227   0.262   0.209   0.357   0.206   0.260   0.087   0.267
              0.021   0.015   0.001   0.021   0.021
  55  1.987   0.191   0.285   0.076   0.463   0.248   0.349   0.078   0.242
              0.015   0.004   0.000   0.015   0.020
  57  1.992   0.235   0.260   0.231   0.380   0.222   0.246   0.082   0.260
              0.021   0.015   0.001   0.016   0.021
  58  1.990   0.245   0.256   0.235   0.385   0.230   0.248   0.074   0.244
              0.021   0.015   0.001   0.015   0.021
  59  2.017   0.239   0.260   0.228   0.400   0.229   0.254   0.086   0.251
              0.020   0.014   0.001   0.014   0.022
  60  1.954   0.228   0.261   0.211   0.357   0.212   0.258   0.086   0.260
              0.021   0.016   0.001   0.022   0.022
  61  2.005   0.198   0.283   0.086   0.485   0.249   0.342   0.074   0.235
              0.014   0.004   0.000   0.014   0.020
  63  1.967   0.235   0.258   0.225   0.369   0.220   0.244   0.079   0.258
              0.020   0.015   0.001   0.021   0.021

mulliken: Qtot =      116.000

mulliken: Spin DOWN 

Species: H.mpn               
Atom  Qatom  Qorb
               1s      1s      1Ppy    1Ppz    1Ppx    
   1  0.617   0.412   0.151   0.022   0.020   0.012
   3  0.618   0.424   0.142   0.022   0.020   0.011
   9  0.619   0.428   0.139   0.021   0.019   0.012
  32  0.618   0.420   0.146   0.017   0.017   0.018
  33  0.619   0.422   0.146   0.017   0.016   0.018
  56  0.620   0.431   0.140   0.021   0.016   0.012
  62  0.621   0.430   0.143   0.022   0.015   0.011
  64  0.619   0.418   0.152   0.022   0.015   0.012

Species: C.mpn               
Atom  Qatom  Qorb
               2s      2s      2py     2pz     2px     2py     2pz     2px     
               2Pdxy   2Pdyz   2Pdz2   2Pdxz   2Pdx2-y2
   2  1.967   0.235   0.258   0.225   0.369   0.220   0.244   0.079   0.258
              0.020   0.015   0.001   0.021   0.021
   4  2.005   0.198   0.283   0.086   0.484   0.250   0.342   0.074   0.235
              0.014   0.004   0.000   0.014   0.020
   5  1.954   0.228   0.261   0.212   0.357   0.212   0.258   0.086   0.259
              0.021   0.016   0.001   0.022   0.022
   6  2.017   0.239   0.260   0.228   0.400   0.228   0.254   0.086   0.251
              0.020   0.014   0.001   0.014   0.022
   7  1.990   0.245   0.256   0.235   0.385   0.230   0.248   0.074   0.244
              0.021   0.015   0.001   0.015   0.021
   8  1.992   0.236   0.260   0.231   0.380   0.222   0.246   0.082   0.261
              0.021   0.015   0.001   0.016   0.021
  10  1.987   0.191   0.285   0.076   0.463   0.248   0.349   0.078   0.242
              0.015   0.004   0.000   0.015   0.020
  11  1.953   0.227   0.261   0.209   0.357   0.206   0.260   0.087   0.267
              0.021   0.015   0.001   0.021   0.021
  12  2.012   0.236   0.262   0.221   0.396   0.225   0.259   0.086   0.255
              0.021   0.014   0.001   0.015   0.021
  13  1.990   0.234   0.261   0.225   0.376   0.224   0.255   0.083   0.256
              0.021   0.016   0.001   0.016   0.021
  14  2.011   0.243   0.259   0.236   0.401   0.225   0.247   0.079   0.250
              0.021   0.014   0.001   0.015   0.020
  15  1.992   0.235   0.260   0.227   0.381   0.225   0.254   0.081   0.253
              0.021   0.016   0.001   0.016   0.021
  16  2.008   0.237   0.261   0.230   0.393   0.227   0.253   0.085   0.251
              0.020   0.015   0.001   0.015   0.022
  17  1.993   0.245   0.256   0.233   0.389   0.231   0.249   0.074   0.243
              0.021   0.015   0.001   0.015   0.021
  18  1.993   0.236   0.260   0.231   0.381   0.224   0.246   0.082   0.259
              0.021   0.015   0.001   0.016   0.021
  19  1.931   0.184   0.285   0.079   0.427   0.234   0.347   0.076   0.246
              0.015   0.004   0.000   0.014   0.019
  20  1.875   0.191   0.279   0.157   0.384   0.155   0.290   0.063   0.299
              0.022   0.011   0.001   0.011   0.013
  21  2.020   0.237   0.261   0.224   0.402   0.224   0.257   0.088   0.254
              0.021   0.014   0.001   0.014   0.021
  22  1.989   0.245   0.256   0.234   0.381   0.225   0.246   0.075   0.252
              0.021   0.016   0.001   0.017   0.021
  23  2.014   0.234   0.263   0.225   0.396   0.225   0.256   0.087   0.256
              0.021   0.015   0.001   0.015   0.021
  24  1.991   0.235   0.260   0.226   0.380   0.226   0.254   0.081   0.253
              0.021   0.016   0.001   0.016   0.021
  25  2.010   0.234   0.262   0.226   0.394   0.226   0.255   0.085   0.254
              0.021   0.015   0.001   0.015   0.021
  26  1.994   0.235   0.261   0.226   0.382   0.225   0.255   0.082   0.254
              0.021   0.016   0.001   0.016   0.021
  27  2.008   0.242   0.259   0.235   0.398   0.226   0.246   0.079   0.250
              0.021   0.014   0.001   0.015   0.020
  28  1.990   0.235   0.261   0.227   0.380   0.226   0.254   0.081   0.253
              0.021   0.016   0.001   0.015   0.021
  29  2.010   0.237   0.261   0.230   0.394   0.227   0.253   0.084   0.252
              0.020   0.015   0.001   0.014   0.022
  30  1.978   0.247   0.254   0.233   0.380   0.233   0.248   0.070   0.241
              0.021   0.015   0.001   0.015   0.021
  31  1.937   0.237   0.256   0.219   0.350   0.221   0.249   0.073   0.257
              0.022   0.014   0.001   0.017   0.020
  34  2.035   0.232   0.263   0.218   0.420   0.222   0.252   0.095   0.259
              0.022   0.013   0.001   0.016   0.020
  35  2.024   0.245   0.258   0.233   0.413   0.233   0.250   0.080   0.242
              0.021   0.014   0.001   0.014   0.021
  36  1.992   0.238   0.259   0.231   0.380   0.227   0.252   0.080   0.250
              0.020   0.016   0.001   0.016   0.022
  37  2.009   0.234   0.262   0.227   0.394   0.226   0.255   0.085   0.254
              0.021   0.015   0.001   0.015   0.021
  38  1.993   0.243   0.257   0.236   0.387   0.226   0.246   0.076   0.249
              0.021   0.015   0.001   0.015   0.020
  39  2.006   0.234   0.262   0.226   0.391   0.225   0.255   0.085   0.255
              0.021   0.015   0.001   0.015   0.021
  40  1.989   0.235   0.261   0.226   0.379   0.226   0.255   0.081   0.253
              0.021   0.016   0.001   0.015   0.021
  41  2.009   0.234   0.263   0.226   0.394   0.226   0.256   0.085   0.254
              0.021   0.015   0.001   0.014   0.021
  42  1.986   0.235   0.260   0.226   0.376   0.224   0.255   0.080   0.255
              0.021   0.015   0.001   0.016   0.021
  43  2.012   0.243   0.259   0.233   0.399   0.225   0.248   0.080   0.254
              0.021   0.013   0.001   0.013   0.021
  44  1.980   0.239   0.258   0.223   0.374   0.224   0.256   0.079   0.253
              0.021   0.015   0.002   0.015   0.021
  45  1.913   0.189   0.282   0.158   0.414   0.155   0.292   0.069   0.301
              0.022   0.008   0.001   0.009   0.013
  46  1.856   0.186   0.280   0.077   0.372   0.233   0.346   0.063   0.244
              0.015   0.004   0.001   0.016   0.019
  47  2.007   0.235   0.261   0.231   0.392   0.224   0.246   0.085   0.260
              0.021   0.014   0.001   0.016   0.021
  48  2.009   0.244   0.258   0.233   0.401   0.231   0.250   0.078   0.243
              0.021   0.015   0.001   0.014   0.021
  49  1.992   0.238   0.259   0.230   0.381   0.227   0.253   0.081   0.250
              0.020   0.015   0.001   0.015   0.022
  50  2.008   0.234   0.262   0.227   0.393   0.225   0.255   0.085   0.254
              0.021   0.015   0.001   0.015   0.021
  51  1.991   0.244   0.257   0.236   0.386   0.225   0.246   0.075   0.250
              0.021   0.015   0.001   0.015   0.020
  52  2.010   0.233   0.263   0.225   0.390   0.225   0.257   0.087   0.257
              0.021   0.015   0.001   0.015   0.021
  53  1.986   0.237   0.259   0.221   0.377   0.225   0.257   0.080   0.255
              0.021   0.015   0.001   0.015   0.021
  54  1.982   0.224   0.266   0.209   0.380   0.204   0.262   0.094   0.272
              0.021   0.014   0.001   0.014   0.022
  55  1.836   0.195   0.276   0.073   0.352   0.246   0.348   0.051   0.240
              0.015   0.005   0.001   0.016   0.020
  57  2.007   0.234   0.262   0.231   0.391   0.222   0.247   0.086   0.261
              0.021   0.014   0.001   0.016   0.021
  58  2.010   0.244   0.258   0.235   0.400   0.230   0.249   0.078   0.245
              0.021   0.014   0.001   0.014   0.021
  59  1.985   0.241   0.257   0.228   0.377   0.228   0.252   0.079   0.250
              0.020   0.016   0.001   0.015   0.022
  60  1.985   0.224   0.267   0.210   0.384   0.210   0.262   0.093   0.266
              0.021   0.014   0.001   0.012   0.022
  61  1.820   0.202   0.272   0.082   0.346   0.247   0.341   0.043   0.233
              0.014   0.004   0.001   0.015   0.020
  63  2.003   0.231   0.264   0.223   0.399   0.219   0.248   0.087   0.263
              0.021   0.013   0.001   0.013   0.021

mulliken: Qtot =      116.000

                     ====================================
                        Begin CG opt. move =      1
                     ====================================

superc: Internal auxiliary supercell:     3 x     1 x     1  =       3
superc: Number of atoms, orbitals, and projectors:    192   2304   2904

outcell: Unit cell vectors (Ang):
        8.970000    0.000000    0.000000
        0.000000   50.000000    0.000000
        0.000000    0.000000   20.000000

outcell: Cell vector modules (Ang)   :    8.970000   50.000000   20.000000
outcell: Cell angles (23,13,12) (deg):     90.0000     90.0000     90.0000
outcell: Cell volume (Ang**3)        :   8970.0000
<dSpData1D:S at geom step 1
  <sparsity:sparsity for geom step 1
    nrows_g=768 nrows=48 sparsity=.0469 nnzs=27660, refcount: 7>
  <dData1D:(new from dSpData1D) n=27660, refcount: 1>
refcount: 1>
new_DM -- step:     2
Re-using DM from previous geometries...
Number of DMs in history: 1
 DM extrapolation coefficients: 
1   1.00000
New DM after history re-use:
<dSpData2D:SpM extrapolated using coords
  <sparsity:sparsity for geom step 1
    nrows_g=768 nrows=48 sparsity=.0469 nnzs=27660, refcount: 8>
  <dData2D:(temp array for extrapolation) n=27660 m=2, refcount: 1>
refcount: 1>
No. of atoms with KB's overlaping orbs in proc 0. Max # of overlaps:      53     217
New grid distribution:   1
           1       1:   54    1:   80    1:   21
           2       1:   54    1:   80   22:   42
           3       1:   54    1:   80   43:   63
           4       1:   54    1:   80   64:   84
           5       1:   54    1:   80   85:  105
           6       1:   54    1:   80  106:  125
           7       1:   54   81:  160    1:   21
           8       1:   54   81:  160   22:   42
           9       1:   54   81:  160   43:   63
          10       1:   54   81:  160   64:   84
          11       1:   54   81:  160   85:  105
          12       1:   54   81:  160  106:  125
          13       1:   54  161:  240    1:   21
          14       1:   54  161:  240   22:   42
          15       1:   54  161:  240   43:   63
          16       1:   54  161:  240   64:   84
          17       1:   54  161:  240   85:  105
          18       1:   54  161:  240  106:  125
          19       1:   54  241:  320    1:   21
          20       1:   54  241:  320   22:   42
          21       1:   54  241:  320   43:   63
          22       1:   54  241:  320   64:   84
          23       1:   54  241:  320   85:  105
          24       1:   54  241:  320  106:  125

InitMesh: MESH =   108 x   640 x   250 =    17280000
InitMesh: (bp) =    54 x   320 x   125 =     2160000
InitMesh: Mesh cutoff (required, used) =   400.000   400.649 Ry
ExtMesh (bp) on 0 =   118 x   148 x    89 =     1554296
New grid distribution:   2
           1       1:   54    1:   48    1:   63
           2       1:   54  101:  117   68:  125
           3       1:   54   66:   74    1:   63
           4       1:   54   49:   65   64:   67
           5       1:   54    1:   48   64:  125
           6       1:   54   75:   91   60:   63
           7       1:   54   75:   91    1:   59
           8       1:   54  118:  126    1:   63
           9       1:   54  101:  117    1:   59
          10       1:   54   92:  100    1:   63
          11       1:   54   75:   91   68:  125
          12       1:   54   49:   65   60:   63
          13       1:   54  127:  320    1:   58
          14       1:   54   49:   65   68:  125
          15       1:   54   92:  100   64:  125
          16       1:   54  101:  117   60:   63
          17       1:   54  127:  320   68:  125
          18       1:   54  127:  320   59:   63
          19       1:   54   66:   74   64:  125
          20       1:   54  101:  117   64:   67
          21       1:   54   49:   65    1:   59
          22       1:   54  127:  320   64:   67
          23       1:   54  118:  126   64:  125
          24       1:   54   75:   91   64:   67
New grid distribution:   3
           1       1:   54    1:   35    1:   63
           2       1:   54   36:   58    1:   55
           3       1:   54  127:  138   64:  125
           4       1:   54   70:   92   56:   63
           5       1:   54    1:   35   64:  125
           6       1:   54   70:   92   64:   71
           7       1:   54   70:   92    1:   55
           8       1:   54  127:  138    1:   63
           9       1:   54  104:  126    1:   55
          10       1:   54  139:  320   64:   70
          11       1:   54   93:  104   64:  125
          12       1:   54   36:   58   64:   71
          13       1:   54  139:  320    1:   56
          14       1:   54   70:   92   72:  125
          15       1:   54   93:  103    1:   63
          16       1:   54   36:   58   56:   63
          17       1:   54  139:  320   71:  125
          18       1:   54   36:   58   72:  125
          19       1:   54   59:   69    1:   63
          20       1:   54  104:  126   56:   63
          21       1:   54  139:  320   57:   63
          22       1:   54  105:  126   72:  125
          23       1:   54   59:   69   64:  125
          24       1:   54  105:  126   64:   71
Setting up quadratic distribution...
ExtMesh (bp) on 0 =   118 x   116 x   131 =     1793128
PhiOnMesh: Number of (b)points on node 0 =               163296
PhiOnMesh: nlist on node 0 =               647732

        iscf     Eharris(eV)        E_KS(eV)     FreeEng(eV)     dDmax    Ef(eV) dHmax(eV)
   scf:    1    -8788.597167    -8788.414818    -8788.414975  0.013862 -3.380355  0.432938
   scf:    2    -8787.207906    -8788.108980    -8788.109167  0.014593 -3.372711  1.164309
   scf:    3    -8788.632441    -8788.510728    -8788.510890  0.010040 -3.377297  0.061073
   scf:    4    -8788.514151    -8788.512743    -8788.512905  0.000502 -3.374388  0.020314
   scf:    5    -8788.513504    -8788.513182    -8788.513346  0.000289 -3.374240  0.011191
   scf:    6    -8788.513246    -8788.513216    -8788.513380  0.000111 -3.374009  0.012264
   scf:    7    -8788.513252    -8788.513235    -8788.513400  0.000106 -3.374111  0.008391
   scf:    8    -8788.513273    -8788.513253    -8788.513418  0.000188 -3.374182  0.005091
   scf:    9    -8788.513268    -8788.513260    -8788.513426  0.000123 -3.374198  0.003359
   scf:   10    -8788.513263    -8788.513261    -8788.513427  0.000035 -3.374207  0.002720
   scf:   11    -8788.513266    -8788.513263    -8788.513429  0.000076 -3.374232  0.001282
   scf:   12    -8788.513265    -8788.513264    -8788.513430  0.000054 -3.374247  0.000426
   scf:   13    -8788.513264    -8788.513264    -8788.513430  0.000018 -3.374246  0.000252
   scf:   14    -8788.513264    -8788.513264    -8788.513430  0.000002 -3.374244  0.000217

SCF Convergence by DM+H criterion
max |DM_out - DM_in|         :     0.0000019284
max |H_out - H_in|      (eV) :     0.0002173814
SCF cycle converged after 14 iterations

Using DM_out to compute the final energy and forces
No. of atoms with KB's overlaping orbs in proc 0. Max # of overlaps:      53     217

siesta: E_KS(eV) =            -8788.5133

siesta: Total spin polarization (Qup-Qdown) =    0.000000

siesta: Atomic forces (eV/Ang):
----------------------------------------
   Tot   -0.002969   -0.002988   -0.000000
----------------------------------------
   Max    0.652598
   Res    0.236808    sqrt( Sum f_i^2 / 3N )
----------------------------------------
   Max    0.652598    constrained

Stress-tensor-Voigt (kbar):       -3.35       -8.28        0.01       -0.26       -0.00       -0.00
(Free)E + p*V (eV/cell)    -8766.8219
Target enthalpy (eV/cell)    -8788.5134
 
mulliken: Atomic and Orbital Populations:

mulliken: Spin UP 

Species: H.mpn               
Atom  Qatom  Qorb
               1s      1s      1Ppy    1Ppz    1Ppx    
   1  0.619   0.419   0.152   0.022   0.015   0.012
   3  0.621   0.429   0.144   0.022   0.015   0.011
   9  0.621   0.432   0.140   0.021   0.016   0.012
  32  0.619   0.421   0.147   0.017   0.016   0.018
  33  0.618   0.419   0.147   0.017   0.018   0.018
  56  0.619   0.428   0.139   0.021   0.019   0.012
  62  0.619   0.423   0.143   0.022   0.020   0.011
  64  0.616   0.412   0.151   0.022   0.020   0.012

Species: C.mpn               
Atom  Qatom  Qorb
               2s      2s      2py     2pz     2px     2py     2pz     2px     
               2Pdxy   2Pdyz   2Pdz2   2Pdxz   2Pdx2-y2
   2  2.003   0.234   0.263   0.221   0.399   0.222   0.253   0.086   0.256
              0.020   0.013   0.001   0.013   0.021
   4  1.829   0.198   0.273   0.078   0.349   0.247   0.345   0.048   0.236
              0.014   0.004   0.001   0.015   0.020
   5  1.984   0.226   0.265   0.212   0.385   0.211   0.259   0.091   0.264
              0.021   0.014   0.001   0.012   0.021
   6  1.981   0.243   0.256   0.227   0.378   0.229   0.251   0.075   0.248
              0.021   0.015   0.001   0.015   0.021
   7  2.010   0.240   0.260   0.232   0.397   0.228   0.250   0.081   0.250
              0.021   0.015   0.001   0.014   0.021
   8  2.008   0.237   0.261   0.230   0.394   0.225   0.251   0.083   0.254
              0.021   0.015   0.001   0.015   0.021
  10  1.831   0.194   0.276   0.072   0.351   0.247   0.349   0.049   0.239
              0.015   0.004   0.001   0.015   0.020
  11  1.983   0.226   0.265   0.210   0.382   0.205   0.261   0.093   0.271
              0.021   0.014   0.001   0.013   0.021
  12  1.987   0.239   0.258   0.224   0.379   0.224   0.255   0.079   0.254
              0.021   0.015   0.001   0.015   0.021
  13  2.010   0.234   0.263   0.226   0.392   0.225   0.256   0.086   0.256
              0.021   0.015   0.001   0.015   0.021
  14  1.990   0.241   0.258   0.231   0.383   0.226   0.249   0.077   0.251
              0.021   0.015   0.001   0.015   0.021
  15  2.008   0.236   0.262   0.228   0.394   0.226   0.254   0.084   0.253
              0.021   0.015   0.001   0.014   0.021
  16  1.991   0.239   0.259   0.230   0.383   0.227   0.252   0.078   0.250
              0.021   0.016   0.001   0.015   0.021
  17  2.008   0.240   0.259   0.231   0.398   0.229   0.251   0.080   0.249
              0.021   0.015   0.001   0.014   0.021
  18  2.009   0.237   0.261   0.230   0.395   0.226   0.251   0.083   0.253
              0.021   0.015   0.001   0.015   0.021
  19  1.852   0.187   0.279   0.078   0.370   0.233   0.345   0.061   0.244
              0.015   0.004   0.001   0.016   0.019
  20  1.913   0.185   0.284   0.154   0.412   0.155   0.297   0.072   0.302
              0.022   0.008   0.001   0.009   0.013
  21  1.980   0.240   0.257   0.225   0.375   0.225   0.255   0.078   0.252
              0.021   0.015   0.002   0.015   0.021
  22  2.012   0.239   0.261   0.229   0.398   0.225   0.252   0.082   0.255
              0.021   0.014   0.001   0.014   0.021
  23  1.984   0.236   0.260   0.226   0.375   0.225   0.255   0.079   0.254
              0.021   0.015   0.001   0.015   0.021
  24  2.009   0.236   0.262   0.228   0.394   0.226   0.254   0.084   0.254
              0.021   0.015   0.001   0.014   0.021
  25  1.990   0.237   0.260   0.227   0.381   0.226   0.253   0.080   0.253
              0.021   0.015   0.001   0.015   0.021
  26  2.007   0.235   0.262   0.227   0.392   0.225   0.255   0.084   0.254
              0.021   0.015   0.001   0.015   0.021
  27  1.993   0.240   0.259   0.231   0.385   0.227   0.249   0.078   0.251
              0.021   0.015   0.001   0.015   0.021
  28  2.009   0.236   0.261   0.228   0.395   0.226   0.253   0.084   0.253
              0.021   0.015   0.001   0.015   0.021
  29  1.991   0.240   0.258   0.230   0.382   0.227   0.251   0.078   0.249
              0.021   0.016   0.001   0.016   0.021
  30  2.024   0.241   0.260   0.231   0.409   0.229   0.251   0.083   0.248
              0.021   0.015   0.001   0.014   0.021
  31  2.036   0.237   0.262   0.217   0.425   0.228   0.255   0.092   0.250
              0.021   0.014   0.001   0.015   0.021
  34  1.935   0.241   0.254   0.217   0.352   0.228   0.252   0.070   0.247
              0.021   0.015   0.001   0.016   0.021
  35  1.978   0.243   0.256   0.230   0.377   0.229   0.250   0.073   0.247
              0.021   0.015   0.001   0.015   0.021
  36  2.010   0.238   0.261   0.230   0.397   0.227   0.252   0.082   0.251
              0.021   0.015   0.001   0.014   0.021
  37  1.991   0.237   0.260   0.228   0.382   0.226   0.253   0.080   0.252
              0.021   0.016   0.001   0.015   0.021
  38  2.007   0.239   0.260   0.231   0.396   0.227   0.250   0.081   0.252
              0.021   0.015   0.001   0.015   0.021
  39  1.993   0.236   0.260   0.227   0.382   0.225   0.254   0.081   0.254
              0.021   0.016   0.001   0.016   0.021
  40  2.010   0.236   0.262   0.228   0.395   0.226   0.253   0.084   0.254
              0.021   0.015   0.001   0.015   0.021
  41  1.992   0.237   0.260   0.228   0.381   0.226   0.252   0.080   0.253
              0.021   0.016   0.001   0.016   0.021
  42  2.016   0.234   0.263   0.227   0.398   0.225   0.255   0.087   0.255
              0.021   0.015   0.001   0.015   0.021
  43  1.989   0.242   0.257   0.229   0.379   0.226   0.250   0.077   0.253
              0.021   0.016   0.001   0.017   0.021
  44  2.020   0.238   0.261   0.225   0.403   0.225   0.256   0.086   0.253
              0.021   0.014   0.001   0.014   0.021
  45  1.876   0.187   0.280   0.153   0.382   0.154   0.295   0.066   0.300
              0.022   0.011   0.001   0.011   0.013
  46  1.933   0.185   0.285   0.080   0.430   0.233   0.346   0.075   0.246
              0.015   0.004   0.000   0.014   0.019
  47  1.992   0.238   0.259   0.230   0.383   0.226   0.250   0.079   0.252
              0.021   0.015   0.001   0.015   0.021
  48  1.993   0.241   0.258   0.231   0.386   0.229   0.250   0.077   0.248
              0.021   0.015   0.001   0.015   0.021
  49  2.010   0.238   0.261   0.230   0.396   0.227   0.252   0.082   0.251
              0.021   0.015   0.001   0.014   0.021
  50  1.992   0.237   0.260   0.228   0.382   0.226   0.253   0.080   0.252
              0.021   0.016   0.001   0.016   0.021
  51  2.011   0.240   0.260   0.231   0.398   0.226   0.250   0.082   0.252
              0.021   0.014   0.001   0.015   0.021
  52  1.990   0.235   0.260   0.226   0.377   0.225   0.254   0.081   0.255
              0.021   0.016   0.001   0.016   0.021
  53  2.012   0.237   0.261   0.224   0.397   0.224   0.256   0.085   0.255
              0.021   0.014   0.001   0.015   0.021
  54  1.954   0.229   0.260   0.211   0.358   0.206   0.258   0.086   0.266
              0.021   0.015   0.001   0.021   0.021
  55  1.990   0.191   0.286   0.075   0.468   0.248   0.350   0.078   0.241
              0.015   0.004   0.000   0.015   0.019
  57  1.991   0.238   0.259   0.230   0.382   0.225   0.250   0.080   0.253
              0.021   0.015   0.001   0.016   0.021
  58  1.990   0.241   0.258   0.232   0.382   0.228   0.249   0.077   0.249
              0.021   0.015   0.001   0.016   0.021
  59  2.020   0.241   0.260   0.227   0.406   0.230   0.253   0.083   0.249
              0.021   0.014   0.001   0.014   0.021
  60  1.954   0.230   0.259   0.213   0.359   0.213   0.256   0.084   0.259
              0.021   0.016   0.001   0.021   0.021
  61  1.997   0.195   0.284   0.082   0.474   0.249   0.346   0.076   0.238
              0.014   0.004   0.000   0.015   0.020
  63  1.968   0.238   0.257   0.223   0.371   0.224   0.248   0.078   0.251
              0.020   0.016   0.001   0.020   0.021

mulliken: Qtot =      116.000

mulliken: Spin DOWN 

Species: H.mpn               
Atom  Qatom  Qorb
               1s      1s      1Ppy    1Ppz    1Ppx    
   1  0.617   0.412   0.151   0.022   0.020   0.012
   3  0.619   0.423   0.143   0.022   0.020   0.011
   9  0.619   0.428   0.139   0.021   0.019   0.012
  32  0.618   0.419   0.147   0.017   0.018   0.018
  33  0.619   0.421   0.147   0.017   0.016   0.018
  56  0.621   0.432   0.140   0.021   0.016   0.012
  62  0.621   0.429   0.144   0.022   0.015   0.011
  64  0.619   0.418   0.152   0.022   0.015   0.012

Species: C.mpn               
Atom  Qatom  Qorb
               2s      2s      2py     2pz     2px     2py     2pz     2px     
               2Pdxy   2Pdyz   2Pdz2   2Pdxz   2Pdx2-y2
   2  1.969   0.238   0.257   0.223   0.371   0.224   0.249   0.078   0.251
              0.020   0.016   0.001   0.020   0.021
   4  1.997   0.195   0.284   0.082   0.474   0.249   0.346   0.076   0.238
              0.014   0.004   0.000   0.015   0.020
   5  1.954   0.230   0.259   0.213   0.359   0.213   0.256   0.084   0.258
              0.021   0.016   0.001   0.021   0.021
   6  2.020   0.241   0.260   0.227   0.406   0.229   0.253   0.083   0.249
              0.021   0.014   0.001   0.014   0.021
   7  1.990   0.241   0.258   0.232   0.382   0.228   0.249   0.077   0.249
              0.021   0.015   0.001   0.016   0.021
   8  1.991   0.238   0.259   0.230   0.382   0.225   0.250   0.080   0.253
              0.021   0.015   0.001   0.016   0.021
  10  1.990   0.191   0.286   0.075   0.468   0.248   0.350   0.078   0.241
              0.015   0.004   0.000   0.015   0.019
  11  1.954   0.229   0.260   0.211   0.358   0.207   0.258   0.086   0.266
              0.021   0.015   0.001   0.021   0.021
  12  2.012   0.238   0.261   0.224   0.397   0.224   0.257   0.085   0.255
              0.021   0.014   0.001   0.015   0.021
  13  1.989   0.235   0.260   0.226   0.376   0.225   0.255   0.081   0.255
              0.021   0.016   0.001   0.016   0.021
  14  2.011   0.240   0.260   0.231   0.398   0.226   0.250   0.082   0.252
              0.021   0.014   0.001   0.015   0.021
  15  1.992   0.237   0.260   0.228   0.382   0.226   0.253   0.080   0.252
              0.021   0.016   0.001   0.016   0.021
  16  2.009   0.238   0.261   0.230   0.396   0.227   0.252   0.082   0.251
              0.021   0.015   0.001   0.014   0.021
  17  1.993   0.241   0.258   0.231   0.386   0.229   0.250   0.077   0.248
              0.021   0.015   0.001   0.015   0.021
  18  1.992   0.238   0.259   0.230   0.383   0.226   0.250   0.079   0.252
              0.021   0.015   0.001   0.015   0.021
  19  1.933   0.185   0.285   0.080   0.430   0.233   0.346   0.075   0.246
              0.015   0.004   0.000   0.014   0.019
  20  1.876   0.187   0.280   0.153   0.382   0.154   0.295   0.066   0.300
              0.022   0.011   0.001   0.011   0.013
  21  2.020   0.238   0.261   0.225   0.403   0.225   0.256   0.086   0.253
              0.021   0.014   0.001   0.014   0.021
  22  1.989   0.242   0.257   0.229   0.379   0.226   0.250   0.077   0.253
              0.021   0.016   0.001   0.017   0.021
  23  2.017   0.234   0.263   0.226   0.398   0.225   0.256   0.087   0.255
              0.021   0.015   0.001   0.015   0.021
  24  1.992   0.237   0.260   0.228   0.381   0.226   0.252   0.080   0.253
              0.021   0.016   0.001   0.016   0.021
  25  2.010   0.236   0.262   0.228   0.395   0.226   0.254   0.084   0.254
              0.021   0.015   0.001   0.015   0.021
  26  1.993   0.236   0.261   0.227   0.382   0.225   0.254   0.081   0.254
              0.021   0.016   0.001   0.016   0.021
  27  2.007   0.239   0.260   0.231   0.396   0.227   0.250   0.081   0.252
              0.021   0.015   0.001   0.015   0.021
  28  1.991   0.237   0.260   0.228   0.382   0.226   0.253   0.080   0.252
              0.021   0.016   0.001   0.015   0.021
  29  2.010   0.238   0.261   0.230   0.397   0.227   0.252   0.082   0.251
              0.021   0.015   0.001   0.014   0.021
  30  1.978   0.243   0.256   0.231   0.377   0.229   0.250   0.073   0.247
              0.021   0.015   0.001   0.015   0.021
  31  1.935   0.241   0.254   0.217   0.352   0.228   0.252   0.070   0.247
              0.021   0.015   0.001   0.016   0.021
  34  2.036   0.237   0.262   0.217   0.425   0.228   0.255   0.092   0.250
              0.021   0.014   0.001   0.015   0.021
  35  2.024   0.241   0.260   0.231   0.409   0.229   0.251   0.083   0.248
              0.021   0.015   0.001   0.014   0.021
  36  1.991   0.240   0.258   0.230   0.382   0.227   0.251   0.078   0.249
              0.021   0.016   0.001   0.016   0.021
  37  2.009   0.236   0.261   0.228   0.395   0.226   0.253   0.084   0.253
              0.021   0.015   0.001   0.015   0.021
  38  1.993   0.240   0.259   0.231   0.385   0.227   0.249   0.078   0.251
              0.021   0.015   0.001   0.015   0.021
  39  2.007   0.235   0.262   0.227   0.392   0.225   0.254   0.084   0.255
              0.021   0.015   0.001   0.015   0.021
  40  1.990   0.237   0.260   0.228   0.381   0.226   0.253   0.080   0.253
              0.021   0.015   0.001   0.015   0.021
  41  2.009   0.236   0.262   0.228   0.394   0.226   0.254   0.084   0.254
              0.021   0.015   0.001   0.014   0.021
  42  1.984   0.236   0.260   0.226   0.375   0.225   0.254   0.079   0.254
              0.021   0.015   0.001   0.015   0.021
  43  2.012   0.239   0.261   0.229   0.398   0.225   0.252   0.082   0.255
              0.021   0.014   0.001   0.014   0.021
  44  1.980   0.241   0.257   0.225   0.375   0.225   0.255   0.078   0.252
              0.021   0.015   0.002   0.015   0.021
  45  1.913   0.185   0.284   0.154   0.412   0.155   0.297   0.072   0.302
              0.022   0.008   0.001   0.009   0.013
  46  1.852   0.187   0.279   0.078   0.370   0.233   0.345   0.061   0.244
              0.015   0.004   0.001   0.016   0.019
  47  2.009   0.237   0.261   0.230   0.395   0.226   0.251   0.083   0.253
              0.021   0.015   0.001   0.015   0.021
  48  2.009   0.240   0.260   0.231   0.398   0.229   0.251   0.080   0.249
              0.021   0.015   0.001   0.014   0.021
  49  1.991   0.239   0.259   0.230   0.383   0.227   0.252   0.078   0.250
              0.021   0.016   0.001   0.015   0.021
  50  2.008   0.236   0.262   0.228   0.394   0.226   0.254   0.084   0.253
              0.021   0.015   0.001   0.014   0.021
  51  1.990   0.241   0.258   0.231   0.383   0.226   0.249   0.077   0.251
              0.021   0.015   0.001   0.015   0.021
  52  2.010   0.234   0.263   0.226   0.392   0.225   0.256   0.086   0.256
              0.021   0.015   0.001   0.015   0.021
  53  1.987   0.239   0.258   0.224   0.379   0.224   0.255   0.079   0.254
              0.021   0.015   0.001   0.015   0.021
  54  1.983   0.226   0.265   0.210   0.382   0.205   0.261   0.093   0.271
              0.021   0.014   0.001   0.013   0.021
  55  1.831   0.194   0.276   0.072   0.351   0.247   0.349   0.049   0.239
              0.015   0.004   0.001   0.015   0.020
  57  2.008   0.237   0.261   0.230   0.394   0.225   0.251   0.083   0.254
              0.021   0.015   0.001   0.015   0.021
  58  2.010   0.240   0.260   0.232   0.397   0.228   0.250   0.081   0.250
              0.021   0.015   0.001   0.014   0.021
  59  1.981   0.243   0.256   0.227   0.378   0.230   0.251   0.075   0.248
              0.021   0.015   0.001   0.015   0.021
  60  1.984   0.226   0.265   0.212   0.385   0.211   0.259   0.091   0.265
              0.021   0.014   0.001   0.012   0.021
  61  1.829   0.198   0.273   0.078   0.349   0.247   0.345   0.048   0.236
              0.014   0.004   0.001   0.015   0.020
  63  2.003   0.234   0.263   0.222   0.399   0.222   0.252   0.086   0.256
              0.020   0.013   0.001   0.013   0.021

mulliken: Qtot =      116.000

                     ====================================
                        Begin CG opt. move =      2
                     ====================================

superc: Internal auxiliary supercell:     3 x     1 x     1  =       3
superc: Number of atoms, orbitals, and projectors:    192   2304   2904

outcell: Unit cell vectors (Ang):
        8.970000    0.000000    0.000000
        0.000000   50.000000    0.000000
        0.000000    0.000000   20.000000

outcell: Cell vector modules (Ang)   :    8.970000   50.000000   20.000000
outcell: Cell angles (23,13,12) (deg):     90.0000     90.0000     90.0000
outcell: Cell volume (Ang**3)        :   8970.0000
<dSpData1D:S at geom step 2
  <sparsity:sparsity for geom step 2
    nrows_g=768 nrows=48 sparsity=.0469 nnzs=27660, refcount: 7>
  <dData1D:(new from dSpData1D) n=27660, refcount: 1>
refcount: 1>
new_DM -- step:     3
Re-using DM from previous geometries...
Number of DMs in history: 1
 DM extrapolation coefficients: 
1   1.00000
New DM after history re-use:
<dSpData2D:SpM extrapolated using coords
  <sparsity:sparsity for geom step 2
    nrows_g=768 nrows=48 sparsity=.0469 nnzs=27660, refcount: 8>
  <dData2D:(temp array for extrapolation) n=27660 m=2, refcount: 1>
refcount: 1>
No. of atoms with KB's overlaping orbs in proc 0. Max # of overlaps:      53     217
New grid distribution:   1
           1       1:   54    1:   80    1:   21
           2       1:   54    1:   80   22:   42
           3       1:   54    1:   80   43:   63
           4       1:   54    1:   80   64:   84
           5       1:   54    1:   80   85:  105
           6       1:   54    1:   80  106:  125
           7       1:   54   81:  160    1:   21
           8       1:   54   81:  160   22:   42
           9       1:   54   81:  160   43:   63
          10       1:   54   81:  160   64:   84
          11       1:   54   81:  160   85:  105
          12       1:   54   81:  160  106:  125
          13       1:   54  161:  240    1:   21
          14       1:   54  161:  240   22:   42
          15       1:   54  161:  240   43:   63
          16       1:   54  161:  240   64:   84
          17       1:   54  161:  240   85:  105
          18       1:   54  161:  240  106:  125
          19       1:   54  241:  320    1:   21
          20       1:   54  241:  320   22:   42
          21       1:   54  241:  320   43:   63
          22       1:   54  241:  320   64:   84
          23       1:   54  241:  320   85:  105
          24       1:   54  241:  320  106:  125

InitMesh: MESH =   108 x   640 x   250 =    17280000
InitMesh: (bp) =    54 x   320 x   125 =     2160000
InitMesh: Mesh cutoff (required, used) =   400.000   400.649 Ry
ExtMesh (bp) on 0 =   118 x   148 x    89 =     1554296
New grid distribution:   2
           1       1:   54    1:   48    1:   63
           2       1:   54  101:  117   68:  125
           3       1:   54   66:   74    1:   63
           4       1:   54   49:   65   64:   67
           5       1:   54    1:   48   64:  125
           6       1:   54   75:   91   60:   63
           7       1:   54   75:   91    1:   59
           8       1:   54  118:  126    1:   63
           9       1:   54  101:  117    1:   59
          10       1:   54   92:  100    1:   63
          11       1:   54   75:   91   68:  125
          12       1:   54   49:   65   60:   63
          13       1:   54  127:  320    1:   58
          14       1:   54   49:   65   68:  125
          15       1:   54   92:  100   64:  125
          16       1:   54  101:  117   60:   63
          17       1:   54  127:  320   68:  125
          18       1:   54  127:  320   59:   63
          19       1:   54   66:   74   64:  125
          20       1:   54  101:  117   64:   67
          21       1:   54   49:   65    1:   59
          22       1:   54  127:  320   64:   67
          23       1:   54  118:  126   64:  125
          24       1:   54   75:   91   64:   67
New grid distribution:   3
           1       1:   54    1:   35    1:   63
           2       1:   54   36:   58    1:   55
           3       1:   54   59:   70    1:   63
           4       1:   54   36:   58   64:   71
           5       1:   54    1:   35   64:  125
           6       1:   54   36:   58   56:   63
           7       1:   54  104:  126    1:   55
           8       1:   54  127:  138    1:   63
           9       1:   54  104:  126   56:   63
          10       1:   54  139:  320   64:   70
          11       1:   54  104:  126   72:  125
          12       1:   54  127:  138   64:  125
          13       1:   54  139:  320    1:   56
          14       1:   54   36:   58   72:  125
          15       1:   54   59:   70   64:  125
          16       1:   54  104:  126   64:   71
          17       1:   54  139:  320   71:  125
          18       1:   54   71:   92    1:   55
          19       1:   54   93:  103    1:   63
          20       1:   54   71:   92   64:   71
          21       1:   54  139:  320   57:   63
          22       1:   54   71:   92   72:  125
          23       1:   54   93:  103   64:  125
          24       1:   54   71:   92   56:   63
Setting up quadratic distribution...
ExtMesh (bp) on 0 =   118 x   116 x   131 =     1793128
PhiOnMesh: Number of (b)points on node 0 =               163296
PhiOnMesh: nlist on node 0 =               648500

        iscf     Eharris(eV)        E_KS(eV)     FreeEng(eV)     dDmax    Ef(eV) dHmax(eV)
   scf:    1    -8786.829358    -8787.433474    -8787.433673  0.020667 -3.380636  0.644096
   scf:    2    -8784.464929    -8786.694416    -8786.694643  0.019432 -3.321273  1.652083
   scf:    3    -8788.003232    -8787.688671    -8787.688872  0.012982 -3.361615  0.094236
   scf:    4    -8787.698398    -8787.694370    -8787.694570  0.000644 -3.357306  0.032078
   scf:    5    -8787.695813    -8787.695153    -8787.695352  0.000242 -3.356122  0.017939
   scf:    6    -8787.695600    -8787.695416    -8787.695614  0.000215 -3.355464  0.014576
   scf:    7    -8787.695458    -8787.695437    -8787.695635  0.000073 -3.355403  0.011931
   scf:    8    -8787.695525    -8787.695481    -8787.695677  0.000201 -3.355232  0.008791
   scf:    9    -8787.695523    -8787.695501    -8787.695696  0.000140 -3.355066  0.005395
   scf:   10    -8787.695511    -8787.695506    -8787.695701  0.000041 -3.355044  0.004606
   scf:   11    -8787.695526    -8787.695515    -8787.695709  0.000093 -3.355038  0.002490
   scf:   12    -8787.695528    -8787.695521    -8787.695713  0.000086 -3.355051  0.001170
   scf:   13    -8787.695525    -8787.695523    -8787.695715  0.000037 -3.355047  0.000763
   scf:   14    -8787.695525    -8787.695524    -8787.695715  0.000021 -3.355036  0.000511
   scf:   15    -8787.695527    -8787.695525    -8787.695716  0.000029 -3.355009  0.000393
   scf:   16    -8787.695526    -8787.695526    -8787.695716  0.000006 -3.355004  0.000358

SCF Convergence by DM+H criterion
max |DM_out - DM_in|         :     0.0000060519
[...]
         81.31  81.42  81.64  81.72  82.19  82.48  82.73  82.75  83.18  83.45
         83.62  83.63  83.73  83.78  84.28  84.68  85.17  85.67  85.84  86.53
         87.33  87.71  88.92  89.47  89.56  91.45  92.02  92.73  93.45  93.76
         95.35  95.56  97.00  97.06  98.31  98.61  99.61 100.10 100.35 102.26
        103.98 104.76 105.52 105.71 105.90 106.10 106.81 106.88 106.93 108.46
        109.07 109.67 110.07 110.18 111.45 112.95 113.76 116.19 117.67 117.94
        120.03 120.67 122.31 122.50 124.37 125.23 125.72 129.31 131.27 131.78
        135.24 135.91 138.00 139.06 139.93 140.98 141.61 142.83 142.98 143.38
        144.21 144.77 144.81 146.30 147.34 148.28 150.32 151.80 153.11 158.35
        163.82 164.23 166.56 168.87 169.75 170.51 170.95 171.21 172.23 173.55
        173.83 175.51 175.83 176.37 183.21 183.95 184.53 187.41
  51  1 -22.09 -22.08 -21.85 -21.80 -21.46 -21.35 -20.94 -20.74 -20.28 -19.98
        -19.52 -19.50 -19.49 -19.28 -19.22 -19.08 -18.87 -18.84 -18.59 -18.31
        -18.29 -18.13 -17.78 -17.69 -17.51 -17.27 -16.70 -16.65 -15.96 -15.88
        -15.42 -15.18 -15.01 -14.88 -14.65 -14.60 -14.45 -14.23 -14.14 -13.93
        -13.60 -13.55 -13.41 -13.28 -13.13 -13.06 -12.96 -12.90 -12.71 -12.50
        -12.15 -12.10 -11.92 -11.64 -11.20 -11.04 -10.85 -10.84 -10.76 -10.68
        -10.32 -10.29 -10.18 -10.17 -10.13 -10.00  -9.89  -9.86  -9.84  -9.78
         -9.71  -9.63  -9.58  -9.45  -9.43  -9.42  -9.39  -9.33  -9.25  -9.15
         -9.07  -8.85  -8.83  -8.64  -8.59  -8.51  -8.34  -8.27  -8.12  -7.88
         -7.88  -7.81  -7.81  -7.75  -7.42  -7.38  -7.29  -7.22  -7.22  -7.16
         -7.12  -6.98  -6.94  -6.85  -6.57  -6.53  -6.38  -6.07  -6.00  -5.96
         -5.65  -5.63  -5.13  -4.93  -4.34  -4.25  -2.43  -2.33  -1.79  -1.56
         -1.33  -1.26  -0.88  -0.79  -0.64  -0.35  -0.07  -0.01   0.33   0.50
          0.59   0.88   0.90   0.93   1.80   2.24   2.43   2.45   2.97   3.00
          3.22   3.60   3.93   4.04   4.10   4.33   4.35   4.37   4.60   4.62
          4.71   4.79   4.86   4.99   5.07   5.14   5.19   5.28   5.36   5.48
          5.70   5.74   5.77   5.84   5.92   6.11   6.13   6.36   6.45   6.50
          6.59   6.63   6.75   7.00   7.11   7.14   7.42   7.60   7.72   8.25
          8.32   8.35   8.63   8.76   8.92   9.04   9.17   9.30   9.35   9.35
          9.44   9.52   9.54   9.61   9.69   9.74   9.76   9.77   9.94   9.95
          9.98  10.13  10.17  10.23  10.46  10.47  10.56  10.58  10.60  10.80
         10.83  10.84  10.99  11.00  11.10  11.21  11.32  11.34  11.39  11.58
         11.62  11.72  11.79  11.82  11.86  11.89  11.94  12.06  12.15  12.34
         12.44  12.48  12.50  12.56  12.72  12.74  12.77  12.79  12.87  12.88
         12.92  12.96  13.03  13.04  13.19  13.21  13.23  13.26  13.27  13.33
         13.37  13.39  13.46  13.48  13.49  13.50  13.50  13.53  13.62  13.62
         13.71  13.73  13.77  13.81  13.83  13.91  13.92  13.93  14.10  14.15
         14.21  14.25  14.29  14.52  14.60  14.76  14.84  14.92  14.94  15.04
         15.09  15.16  15.21  15.40  15.75  15.83  16.32  16.35  16.41  16.41
         16.69  16.73  16.76  16.88  17.89  17.91  17.99  18.13  18.17  18.17
         18.57  18.58  18.59  18.68  18.81  18.82  18.86  18.89  18.95  18.96
         19.08  19.08  19.33  19.40  19.41  19.44  19.63  19.69  19.73  19.83
         19.91  19.95  20.07  20.10  20.30  20.32  20.47  20.49  20.60  20.75
         20.81  20.81  20.90  20.96  21.03  21.11  21.12  21.44  21.45  21.48
         21.48  21.51  21.54  21.58  21.61  21.76  21.78  21.82  21.84  21.92
         22.05  22.13  22.14  22.15  22.24  22.28  22.36  22.42  22.52  22.62
         22.69  22.73  22.75  22.77  22.79  22.85  22.98  23.07  23.20  23.30
         23.30  23.40  23.58  23.72  23.77  23.77  23.78  23.82  23.98  24.08
         24.11  24.24  24.38  24.41  24.47  24.62  25.05  25.15  25.15  25.23
         25.48  25.55  26.03  26.17  26.25  26.28  26.32  26.51  26.59  26.65
         26.67  26.98  27.31  27.43  27.87  28.01  28.57  28.66  28.97  29.31
         29.42  29.44  30.40  30.77  30.85  30.99  31.79  31.83  32.08  32.18
         32.21  32.25  32.51  32.57  33.05  33.14  33.27  33.35  33.55  34.06
         34.11  34.21  34.56  34.77  35.12  35.12  35.57  35.61  35.72  35.87
         35.87  35.89  36.17  36.25  36.32  36.34  36.39  36.54  36.76  36.86
         36.93  37.00  37.06  37.26  37.41  37.49  38.05  38.09  38.15  38.21
         38.37  38.80  38.85  39.00  39.69  39.78  40.50  40.60  41.19  41.29
         41.42  41.59  41.64  41.97  42.88  42.93  43.58  43.68  44.06  44.07
         44.11  44.16  44.19  44.36  44.57  44.69  44.82  45.03  45.46  45.49
         45.80  46.03  46.07  46.20  46.25  46.49  46.58  47.22  47.25  47.33
         47.42  47.49  47.64  47.78  47.78  47.90  48.24  48.35  48.69  48.84
         49.42  49.44  49.64  49.88  49.89  49.91  50.05  50.28  50.43  50.61
         50.62  50.64  50.85  50.97  51.21  51.45  51.45  51.46  51.85  52.04
         52.08  52.09  52.25  52.26  52.83  53.08  53.37  53.48  53.72  53.86
         53.96  54.44  54.48  54.56  54.68  54.73  54.89  55.16  55.21  55.41
         55.50  55.72  55.80  55.98  56.14  56.19  56.31  56.71  56.95  57.14
         57.21  57.41  57.46  57.71  57.75  57.77  58.14  58.20  58.53  58.77
         58.78  58.91  59.24  59.32  59.40  59.43  59.47  59.74  59.97  60.38
         60.44  60.58  60.76  60.83  60.93  61.01  61.14  61.21  61.26  61.62
         61.94  62.17  62.23  62.54  62.59  62.95  62.98  63.23  63.60  63.74
         63.81  64.03  64.43  64.71  64.72  64.89  65.19  66.37  66.91  67.98
         68.40  68.58  68.65  69.80  70.97  71.03  71.71  72.01  72.15  72.55
         72.59  73.34  73.50  73.61  73.76  73.93  74.21  74.24  74.32  74.64
         74.69  74.85  74.94  75.00  75.29  75.42  75.72  75.77  75.98  76.15
         76.32  76.34  76.62  77.32  77.37  77.45  77.63  77.64  77.86  78.04
         78.35  78.74  79.03  79.20  79.25  79.89  80.81  81.06  81.20  81.23
         81.29  81.42  81.65  81.72  82.23  82.51  82.66  82.75  83.16  83.45
         83.63  83.66  83.70  83.78  84.29  84.69  85.16  85.72  85.81  86.53
         87.33  87.71  89.16  89.19  89.53  91.45  92.06  92.71  93.46  93.73
         95.40  95.52  97.02  97.04  98.35  98.57  99.62 100.10 100.33 102.27
        103.97 104.78 105.49 105.72 105.90 106.10 106.83 106.88 106.91 108.45
        109.11 109.68 110.09 110.14 111.46 112.93 113.76 116.22 117.64 117.93
        120.04 120.63 122.38 122.44 124.41 125.22 125.69 129.30 131.50 131.58
        135.42 135.73 138.05 139.37 139.67 140.96 141.59 142.87 142.95 143.38
        144.20 144.77 144.80 146.29 147.44 148.25 150.80 151.29 153.03 158.34
        163.83 164.23 166.57 168.86 169.74 170.53 171.07 171.07 172.22 173.59
        173.78 175.51 176.00 176.17 183.24 183.99 184.46 187.41
  51  2 -22.09 -22.08 -21.85 -21.80 -21.46 -21.35 -20.94 -20.74 -20.28 -19.98
        -19.52 -19.50 -19.49 -19.28 -19.22 -19.08 -18.87 -18.84 -18.59 -18.31
        -18.29 -18.13 -17.78 -17.69 -17.51 -17.27 -16.70 -16.65 -15.96 -15.88
        -15.42 -15.18 -15.01 -14.88 -14.65 -14.60 -14.45 -14.23 -14.14 -13.93
        -13.60 -13.55 -13.41 -13.28 -13.13 -13.06 -12.96 -12.90 -12.71 -12.50
        -12.15 -12.10 -11.92 -11.64 -11.20 -11.04 -10.85 -10.84 -10.76 -10.68
        -10.32 -10.29 -10.18 -10.17 -10.13 -10.00  -9.89  -9.86  -9.84  -9.78
         -9.71  -9.63  -9.58  -9.45  -9.44  -9.42  -9.39  -9.33  -9.25  -9.15
         -9.07  -8.85  -8.83  -8.64  -8.59  -8.51  -8.34  -8.27  -8.12  -7.88
         -7.88  -7.81  -7.81  -7.75  -7.42  -7.38  -7.29  -7.22  -7.22  -7.16
         -7.12  -6.98  -6.94  -6.85  -6.57  -6.53  -6.38  -6.07  -6.00  -5.96
         -5.65  -5.63  -5.13  -4.93  -4.34  -4.25  -2.43  -2.33  -1.79  -1.56
         -1.33  -1.26  -0.88  -0.79  -0.64  -0.35  -0.07  -0.01   0.33   0.50
          0.59   0.88   0.90   0.93   1.80   2.24   2.43   2.45   2.97   3.00
          3.22   3.60   3.93   4.04   4.10   4.33   4.35   4.37   4.60   4.62
          4.71   4.79   4.86   4.99   5.07   5.14   5.19   5.28   5.36   5.48
          5.70   5.74   5.77   5.84   5.92   6.11   6.12   6.36   6.45   6.50
          6.59   6.63   6.75   7.00   7.11   7.14   7.42   7.60   7.72   8.25
          8.32   8.35   8.63   8.76   8.92   9.04   9.17   9.30   9.35   9.35
          9.44   9.52   9.54   9.61   9.69   9.74   9.76   9.77   9.94   9.95
          9.98  10.13  10.17  10.23  10.46  10.47  10.56  10.58  10.60  10.80
         10.83  10.84  10.99  11.00  11.10  11.21  11.32  11.34  11.39  11.58
         11.62  11.72  11.79  11.82  11.86  11.89  11.94  12.06  12.15  12.34
         12.44  12.48  12.50  12.56  12.72  12.74  12.77  12.79  12.87  12.88
         12.92  12.96  13.03  13.04  13.19  13.21  13.23  13.26  13.27  13.33
         13.37  13.39  13.46  13.48  13.49  13.50  13.50  13.53  13.62  13.62
         13.71  13.73  13.77  13.81  13.83  13.91  13.92  13.93  14.10  14.15
         14.21  14.25  14.29  14.52  14.60  14.76  14.84  14.92  14.94  15.04
         15.09  15.16  15.21  15.40  15.75  15.83  16.32  16.35  16.41  16.41
         16.69  16.73  16.76  16.88  17.88  17.91  17.99  18.13  18.17  18.17
         18.57  18.58  18.59  18.68  18.81  18.82  18.86  18.89  18.95  18.96
         19.08  19.08  19.33  19.40  19.41  19.44  19.63  19.69  19.73  19.83
         19.91  19.95  20.07  20.10  20.30  20.32  20.47  20.49  20.60  20.75
         20.81  20.81  20.90  20.96  21.03  21.11  21.12  21.44  21.45  21.48
         21.48  21.51  21.53  21.58  21.61  21.76  21.78  21.82  21.84  21.92
         22.05  22.13  22.14  22.15  22.24  22.28  22.36  22.42  22.52  22.62
         22.69  22.73  22.75  22.77  22.79  22.85  22.98  23.07  23.20  23.30
         23.30  23.40  23.58  23.72  23.77  23.77  23.78  23.82  23.98  24.08
         24.11  24.24  24.38  24.41  24.47  24.62  25.05  25.15  25.15  25.23
         25.48  25.55  26.03  26.17  26.25  26.28  26.32  26.51  26.59  26.65
         26.67  26.98  27.31  27.43  27.87  28.01  28.57  28.66  28.97  29.31
         29.42  29.44  30.40  30.77  30.85  30.99  31.79  31.83  32.08  32.18
         32.20  32.25  32.51  32.57  33.05  33.14  33.27  33.35  33.55  34.06
         34.11  34.21  34.56  34.77  35.12  35.12  35.57  35.61  35.72  35.87
         35.87  35.90  36.17  36.25  36.32  36.34  36.39  36.54  36.76  36.86
         36.93  37.00  37.06  37.26  37.41  37.49  38.05  38.09  38.15  38.21
         38.37  38.80  38.85  39.00  39.69  39.78  40.50  40.60  41.19  41.29
         41.42  41.59  41.64  41.97  42.88  42.93  43.58  43.68  44.06  44.07
         44.11  44.16  44.19  44.36  44.57  44.69  44.82  45.03  45.46  45.49
         45.80  46.03  46.07  46.20  46.25  46.49  46.58  47.22  47.25  47.33
         47.42  47.49  47.64  47.78  47.78  47.90  48.24  48.35  48.69  48.84
         49.42  49.44  49.64  49.88  49.89  49.91  50.05  50.28  50.43  50.61
         50.62  50.64  50.85  50.97  51.21  51.45  51.45  51.46  51.85  52.04
         52.08  52.09  52.25  52.26  52.83  53.08  53.37  53.48  53.72  53.86
         53.96  54.45  54.48  54.56  54.68  54.73  54.89  55.16  55.21  55.41
         55.50  55.72  55.80  55.98  56.14  56.19  56.31  56.71  56.95  57.14
         57.21  57.41  57.46  57.71  57.75  57.77  58.14  58.20  58.53  58.77
         58.78  58.91  59.24  59.31  59.40  59.43  59.47  59.74  59.97  60.38
         60.44  60.58  60.76  60.83  60.93  61.01  61.14  61.21  61.25  61.62
         61.94  62.17  62.23  62.54  62.59  62.95  62.98  63.23  63.60  63.74
         63.81  64.03  64.43  64.71  64.72  64.89  65.19  66.37  66.91  67.98
         68.40  68.58  68.65  69.80  70.97  71.03  71.71  72.01  72.15  72.55
         72.59  73.34  73.50  73.61  73.76  73.93  74.21  74.24  74.32  74.64
         74.69  74.85  74.94  75.00  75.29  75.42  75.72  75.77  75.98  76.15
         76.32  76.34  76.62  77.32  77.37  77.45  77.63  77.64  77.86  78.04
         78.35  78.74  79.03  79.20  79.25  79.89  80.81  81.06  81.20  81.23
         81.29  81.42  81.65  81.72  82.23  82.51  82.66  82.75  83.16  83.45
         83.63  83.66  83.70  83.78  84.29  84.69  85.16  85.72  85.81  86.53
         87.33  87.71  89.16  89.19  89.53  91.45  92.06  92.71  93.46  93.73
         95.40  95.52  97.02  97.04  98.35  98.57  99.62 100.10 100.33 102.27
        103.97 104.78 105.49 105.72 105.90 106.10 106.83 106.88 106.91 108.45
        109.11 109.68 110.09 110.14 111.46 112.93 113.76 116.22 117.64 117.93
        120.04 120.63 122.38 122.44 124.41 125.22 125.69 129.30 131.50 131.58
        135.42 135.73 138.05 139.37 139.67 140.96 141.59 142.87 142.95 143.38
        144.20 144.77 144.80 146.29 147.44 148.25 150.80 151.29 153.03 158.34
        163.83 164.23 166.57 168.86 169.74 170.53 171.07 171.08 172.22 173.59
        173.78 175.51 176.00 176.17 183.24 183.99 184.46 187.41
siesta: Fermi energy =      -3.378733 eV

siesta: Program's energy decomposition (eV):
siesta: Ebs     =     -2830.795399
siesta: Eions   =     11444.555761
siesta: Ena     =      1132.490036
siesta: Ekin    =      6374.965091
siesta: Enl     =     -1999.344652
siesta: Eso     =         0.000000
siesta: Eldau   =         0.000000
siesta: DEna    =      -129.186604
siesta: DUscf   =        13.257055
siesta: DUext   =         0.000000
siesta: Enegf   =         0.000000
siesta: Exc     =     -2736.558644
siesta: eta*DQ  =         0.000000
siesta: Emadel  =         0.000000
siesta: Emeta   =         0.000000
siesta: Emolmec =         0.000000
siesta: Ekinion =         0.000000
siesta: Eharris =     -8788.933480
siesta: Etot    =     -8788.933480
siesta: FreeEng =     -8788.933686

siesta: Final energy (eV):
siesta:  Band Struct. =   -2830.795399
siesta:       Kinetic =    6374.965091
siesta:       Hartree =   85134.629509
siesta:       Eldau   =       0.000000
siesta:       Eso     =       0.000000
siesta:    Ext. field =       0.000000
siesta:       Enegf   =       0.000000
siesta:   Exch.-corr. =   -2736.558644
siesta:  Ion-electron = -175913.823899
siesta:       Ion-ion =   78351.854464
siesta:       Ekinion =       0.000000
siesta:         Total =   -8788.933480
siesta:         Fermi =      -3.378733

siesta: Stress tensor (static) (eV/Ang**3):
siesta:    -0.000714    0.000021   -0.000000
siesta:     0.000021    0.000023   -0.000000
siesta:    -0.000000    0.000000    0.000004

siesta: Cell volume =       8970.000000 Ang**3

siesta: Pressure (static):
siesta:                Solid            Molecule  Units
siesta:           0.00000249          0.00000251  Ry/Bohr**3
siesta:           0.00022886          0.00023005  eV/Ang**3
siesta:           0.36667079          0.36858753  kBar
(Free)E+ p_basis*V_orbitals  =       -8770.871393
(Free)Eharris+ p_basis*V_orbitals  =       -8770.871393

siesta: Total spin polarization (Qup-Qdown) =   -0.000001

siesta: Electric dipole (a.u.)  =   -0.000000   -0.000386   -0.000000
siesta: Electric dipole (Debye) =   -0.000000   -0.000982   -0.000000

Hirshfeld Net Atomic Populations:
Atom #    Qatom  Species
     1    0.021  H.mpn               
     2    0.004  C.mpn               
     3    0.023  H.mpn               
     4   -0.031  C.mpn               
     5    0.005  C.mpn               
     6    0.000  C.mpn               
     7    0.001  C.mpn               
     8   -0.000  C.mpn               
     9    0.026  H.mpn               
    10   -0.029  C.mpn               
    11    0.007  C.mpn               
    12    0.001  C.mpn               
    13    0.000  C.mpn               
    14    0.000  C.mpn               
    15   -0.000  C.mpn               
    16   -0.000  C.mpn               
    17   -0.000  C.mpn               
    18   -0.000  C.mpn               
    19   -0.026  C.mpn               
    20   -0.028  C.mpn               
    21    0.002  C.mpn               
    22    0.000  C.mpn               
    23   -0.000  C.mpn               
    24   -0.000  C.mpn               
    25   -0.000  C.mpn               
    26   -0.000  C.mpn               
    27   -0.000  C.mpn               
    28   -0.000  C.mpn               
    29   -0.001  C.mpn               
    30   -0.001  C.mpn               
    31    0.006  C.mpn               
    32    0.024  H.mpn               
    33    0.024  H.mpn               
    34    0.006  C.mpn               
    35   -0.001  C.mpn               
    36   -0.001  C.mpn               
    37   -0.000  C.mpn               
    38   -0.000  C.mpn               
    39   -0.000  C.mpn               
    40   -0.000  C.mpn               
    41   -0.000  C.mpn               
    42   -0.000  C.mpn               
    43    0.000  C.mpn               
    44    0.002  C.mpn               
    45   -0.028  C.mpn               
    46   -0.026  C.mpn               
    47   -0.000  C.mpn               
    48   -0.000  C.mpn               
    49   -0.000  C.mpn               
    50   -0.000  C.mpn               
    51    0.000  C.mpn               
    52    0.000  C.mpn               
    53    0.001  C.mpn               
    54    0.007  C.mpn               
    55   -0.029  C.mpn               
    56    0.026  H.mpn               
    57   -0.000  C.mpn               
    58    0.001  C.mpn               
    59    0.000  C.mpn               
    60    0.005  C.mpn               
    61   -0.031  C.mpn               
    62    0.023  H.mpn               
    63    0.004  C.mpn               
    64    0.021  H.mpn               

Voronoi Net Atomic Populations:
Atom #    Qatom  Species
     1    0.000  H.mpn               
     2    0.004  C.mpn               
     3   -0.001  H.mpn               
     4   -0.008  C.mpn               
     5    0.004  C.mpn               
     6   -0.002  C.mpn               
     7    0.001  C.mpn               
     8   -0.000  C.mpn               
     9    0.001  H.mpn               
    10   -0.005  C.mpn               
    11    0.005  C.mpn               
    12    0.003  C.mpn               
    13   -0.001  C.mpn               
    14   -0.000  C.mpn               
    15   -0.000  C.mpn               
    16   -0.002  C.mpn               
    17   -0.002  C.mpn               
    18   -0.000  C.mpn               
    19   -0.002  C.mpn               
    20   -0.005  C.mpn               
    21    0.003  C.mpn               
    22    0.001  C.mpn               
    23   -0.000  C.mpn               
    24   -0.001  C.mpn               
    25    0.001  C.mpn               
    26   -0.001  C.mpn               
    27    0.001  C.mpn               
    28   -0.002  C.mpn               
    29   -0.002  C.mpn               
    30   -0.002  C.mpn               
    31   -0.000  C.mpn               
    32    0.001  H.mpn               
    33    0.003  H.mpn               
    34    0.003  C.mpn               
    35   -0.001  C.mpn               
    36    0.000  C.mpn               
    37    0.002  C.mpn               
    38    0.000  C.mpn               
    39    0.000  C.mpn               
    40   -0.000  C.mpn               
    41    0.001  C.mpn               
    42   -0.001  C.mpn               
    43    0.004  C.mpn               
    44    0.000  C.mpn               
    45   -0.003  C.mpn               
    46   -0.002  C.mpn               
    47   -0.002  C.mpn               
    48   -0.001  C.mpn               
    49    0.002  C.mpn               
    50    0.001  C.mpn               
    51    0.001  C.mpn               
    52    0.002  C.mpn               
    53    0.001  C.mpn               
    54    0.007  C.mpn               
    55   -0.006  C.mpn               
    56    0.001  H.mpn               
    57   -0.002  C.mpn               
    58    0.001  C.mpn               
    59   -0.000  C.mpn               
    60    0.006  C.mpn               
    61   -0.007  C.mpn               
    62   -0.002  H.mpn               
    63    0.002  C.mpn               
    64    0.000  H.mpn               
>> End of run:  17-APR-2018   1:39:44
Job completed
Job completed
