Siesta Version  : siesta-4.1--852
Architecture    : unknown
Compiler version: ifort (IFORT) 17.0.4 20170411
Compiler flags  : mpiifort -O1 -xHost -mp1 -fpp -ftz -I/scicomp/easybuild/CentOS/7.3.1611/Hasweell/software/imkl/2017.3.196-iimpi-2017b/mkl/include -I/scratch/scicomp/easybuild/CentOS/7.3.1611/Haswell/software/netCDF-Fortran/4.4.4-intel-2017b/include -I/scratch/scicomp/easybuild/CentOS/7.3.1611/Haswell/software/netCDF/4.4.1.1-intel-2017b/include
PP flags        :  -DFC_HAVE_ABORT -DMPI -DCDF -DNCDF -DNCDF_4 -DGRID_DP -DNCDF_PARALLEL
Libraries       : libncdf.a libfdict.a -L/scratch/scicomp/easybuild/CentOS/7.3.1611/Haswell/sofftware/netCDF-Fortran/4.4.4-intel-2017b/lib -lnetcdff -L/scratch/scicomp/easybuild/CentOS/7.3.1611/Haswell/software/cURL/7.56.0-GCCcore-6.4.0/lib -lcurl -L/scratch/scicomp/easybuild/CentOS/7.3.1611/Haswell/software/netCDF/4.4.1.1-intel-2017b/lib64 -lnetcdf -L/scratch/scicomp/easybuild/CentOS/7.3.1611/Haswell/software/HDF5/1.10.1-intel-2017b/lib -lhdf5hl_fortran -lhdf5_fortran -lhdf5_hl -lhdf5 -L/scratch/scicomp/easybuild/CentOS/7.3.1611/Haswell/software/Szip/2.1.1-GCCcore-6.4.0/lib -lsz -L/scratch/scicomp/easybuild/CentOS/7.3.1611/Haswell/software/zlib/1.2.11-GCCcore-6.4.0/lib -lz /scicomp/easybuild/CentOS/7.3.1611/Haswell/software/imkl/2017.3.196-iimpi-2017b/mkl/lib/intel64/libmkl_scalapack_lp64.a -Wl,--start-group /scicomp/easybuild/CentOS/7.3.1611/Haswell/software/imkl/2017.3.196-iimpi-2017b/mkl/lib/intel64/libmkl_intel_lp64.a /scicomp/easybuild/CentOS/7.3.1611/Haswell/software/imkl/2017.3.196-iimpi-2017b/mkl/lib/intel64/libmkl_sequential.a /scicomp/easybuild/CentOS/7.3.1611/Haswell/software/imkl/2017.3.196-iimpi-2017b/mkl/lib/intel64/libmkl_core.a /scicomp/easybuild/CentOS/7.3.1611/Haswell/software/imkl/2017.3.196-iimpi-2017b/mkl/lib/intel64/libmkl_blacs_intelmpi_lp64.a -Wl,--end-group -lpthread -lm -ldl
PARALLEL version
NetCDF support
NetCDF-4 support
NetCDF-4 MPI-IO support

* Running on 12 nodes in parallel
>> Start of run:  18-APR-2018  23:43:10

                           ***********************       
                           *  WELCOME TO SIESTA  *       
                           ***********************       

reinit: Reading from standard input
reinit: Dumped input in INPUT_TMP.41336
************************** Dump of input data file ****************************
SystemTitle molecule
SystemLabel molecule
SolutionMethod     diagon
TS.HS.Save         true
MD.TypeOfRun  CG
MD.TypeOfRun  Broyden
MD.Broyden.Cycle.On.Maxit F
MD.NumCGsteps  1000
MD.MaxForceTol 0.002 eV/Ang
Diag.ParallelOverK true
%block kgrid_Monkhorst_Pack
 100    0    0    0.0
  0    1    0    0.0
  0    0    1    0.0
%endblock kgrid_Monkhorst_Pack
MaxSCFIterations      3000
SCFMustConverge       true
DM.Tolerance          1.d-5
DM.UseSaveDM          true
DM.NumberPulay	      7
DM.MixingWeight       0.1
MD.UseSaveXV          true
XC.functional         GGA
XC.authors     	      PBE
MeshCutoff            400. Ry
PAO.BasisSize   DZP
PAO.BasisType   split
%block ChemicalSpeciesLabel
    1   1 H.mpn
    2   6 C.mpn
%endblock ChemicalSpeciesLabel
%include STRUCT.fdf
SpinPolarized   true
#FixSpin  true
#Spin.Fix true
#Spin.Total 0
#TotalSpin  0
%block DM.InitSpin
26   1.
11  -1.
%endblock DM.InitSpin
WriteMullikenPop 1
WriteHirshfeldPop true
WriteVoronoiPop true
WriteEigenvalues true
WriteWaveFunctions true
************************** End of input data file *****************************

reinit: -----------------------------------------------------------------------
reinit: System Name: 
reinit: -----------------------------------------------------------------------
reinit: System Label: molecule
reinit: -----------------------------------------------------------------------

initatom: Reading input for the pseudopotentials and atomic orbitals ----------
Species number:   1 Atomic number:    1 Label: H.mpn
Species number:   2 Atomic number:    6 Label: C.mpn
 
Ground state valence configuration:   1s01
Reading pseudopotential information in unformatted form from H.mpn.vps

Pseudopotential generated from a relativistic atomic calculation

Valence configuration for pseudopotential generation:
1s( 1.00) rc: 1.25
2p( 0.00) rc: 1.25
3d( 0.00) rc: 1.25
4f( 0.00) rc: 1.19
Ground state valence configuration:   2s02  2p02
Reading pseudopotential information in unformatted form from C.mpn.vps

Pseudopotential generated from a relativistic atomic calculation

Valence configuration for pseudopotential generation:
2s( 2.00) rc: 1.25
2p( 2.00) rc: 1.25
3d( 0.00) rc: 1.98
4f( 0.00) rc: 1.98
For H.mpn, standard SIESTA heuristics set lmxkb to 2
 (one more than the basis l, including polarization orbitals).
Use PS.lmax or PS.KBprojectors blocks to override.
For C.mpn, standard SIESTA heuristics set lmxkb to 3
 (one more than the basis l, including polarization orbitals).
Use PS.lmax or PS.KBprojectors blocks to override.

<basis_specs>
===============================================================================
H.mpn                Z=   1    Mass=  1.0100        Charge= 0.17977+309
Lmxo=0 Lmxkb= 2    BasisType=split      Semic=F
L=0  Nsemic=0  Cnfigmx=1
          n=1  nzeta=2  polorb=1
            splnorm:   0.15000    
               vcte:    0.0000    
               rinn:    0.0000    
               qcoe:    0.0000    
               qyuk:    0.0000    
               qwid:   0.10000E-01
                rcs:    0.0000      0.0000    
            lambdas:    1.0000      1.0000    
-------------------------------------------------------------------------------
L=0  Nkbl=1  erefs: 0.17977+309
L=1  Nkbl=1  erefs: 0.17977+309
L=2  Nkbl=1  erefs: 0.17977+309
===============================================================================
</basis_specs>

atom: Called for H.mpn                 (Z =   1)

read_vps: Pseudopotential generation method:
read_vps: ATM3      Troullier-Martins                       
Total valence charge:    1.00000

xc_check: Exchange-correlation functional:
xc_check: GGA Perdew, Burke & Ernzerhof 1996
V l=0 = -2*Zval/r beyond r=  1.2343
V l=1 = -2*Zval/r beyond r=  1.2189
V l=2 = -2*Zval/r beyond r=  1.2189
All V_l potentials equal beyond r=  1.2343
This should be close to max(r_c) in ps generation
All pots = -2*Zval/r beyond r=  1.2343

VLOCAL1: 99.0% of the norm of Vloc inside     28.493 Ry
VLOCAL1: 99.9% of the norm of Vloc inside     64.935 Ry
atom: Maximum radius for 4*pi*r*r*local-pseudopot. charge    1.45251
atom: Maximum radius for r*vlocal+2*Zval:    1.21892
GHOST: No ghost state for L =  0
GHOST: No ghost state for L =  1
GHOST: No ghost state for L =  2

KBgen: Kleinman-Bylander projectors: 
   l= 0   rc=  1.398961   el= -0.477184   Ekb= -2.022489   kbcos= -0.344760
   l= 1   rc=  1.730774   el=  0.001076   Ekb= -0.447448   kbcos= -0.022756
   l= 2   rc=  2.036604   el=  0.002010   Ekb= -0.163621   kbcos= -0.002660

KBgen: Total number of  Kleinman-Bylander projectors:    9
atom: -------------------------------------------------------------------------

atom: SANKEY-TYPE ORBITALS:
atom: Selected multiple-zeta basis: split     

SPLIT: Orbitals with angular momentum L= 0

SPLIT: Basis orbitals for state 1s

SPLIT: PAO cut-off radius determined from an
SPLIT: energy shift=  0.020000 Ry

   izeta = 1
                 lambda =    1.000000
                     rc =    4.708991
                 energy =   -0.457736
                kinetic =    0.981128
    potential(screened) =   -1.438864
       potential(ionic) =   -1.967294

   izeta = 2
                 rmatch =    3.759707
              splitnorm =    0.150000
                 energy =   -0.338971
                kinetic =    1.585754
    potential(screened) =   -1.924724
       potential(ionic) =   -2.475189

POLgen: Perturbative polarization orbital with L=  1

POLgen: Polarization orbital for state 1s

   izeta = 1
                     rc =    4.708991
                 energy =    0.764910
                kinetic =    1.475806
    potential(screened) =   -0.710896
       potential(ionic) =   -1.203352
atom: Total number of Sankey-type orbitals:  5

atm_pop: Valence configuration (for local Pseudopot. screening):
 1s( 1.00)                                                            
Vna: chval, zval:    1.00000   1.00000

Vna:  Cut-off radius for the neutral-atom potential:   4.708991

atom: _________________________________________________________________________

<basis_specs>
===============================================================================
C.mpn                Z=   6    Mass=  12.010        Charge= 0.17977+309
Lmxo=1 Lmxkb= 3    BasisType=split      Semic=F
L=0  Nsemic=0  Cnfigmx=2
          n=1  nzeta=2  polorb=0
            splnorm:   0.15000    
               vcte:    0.0000    
               rinn:    0.0000    
               qcoe:    0.0000    
               qyuk:    0.0000    
               qwid:   0.10000E-01
                rcs:    0.0000      0.0000    
            lambdas:    1.0000      1.0000    
L=1  Nsemic=0  Cnfigmx=2
          n=1  nzeta=2  polorb=1
            splnorm:   0.15000    
               vcte:    0.0000    
               rinn:    0.0000    
               qcoe:    0.0000    
               qyuk:    0.0000    
               qwid:   0.10000E-01
                rcs:    0.0000      0.0000    
            lambdas:    1.0000      1.0000    
-------------------------------------------------------------------------------
L=0  Nkbl=1  erefs: 0.17977+309
L=1  Nkbl=1  erefs: 0.17977+309
L=2  Nkbl=1  erefs: 0.17977+309
L=3  Nkbl=1  erefs: 0.17977+309
===============================================================================
</basis_specs>

atom: Called for C.mpn                 (Z =   6)

read_vps: Pseudopotential generation method:
read_vps: ATM3      Troullier-Martins                       
Total valence charge:    4.00000

xc_check: Exchange-correlation functional:
xc_check: GGA Perdew, Burke & Ernzerhof 1996
V l=0 = -2*Zval/r beyond r=  1.5418
V l=1 = -2*Zval/r beyond r=  1.5418
V l=2 = -2*Zval/r beyond r=  1.9553
V l=3 = -2*Zval/r beyond r=  1.9310
All V_l potentials equal beyond r=  1.9310
This should be close to max(r_c) in ps generation
All pots = -2*Zval/r beyond r=  1.9553

VLOCAL1: 99.0% of the norm of Vloc inside     11.642 Ry
VLOCAL1: 99.9% of the norm of Vloc inside     26.531 Ry
atom: Maximum radius for 4*pi*r*r*local-pseudopot. charge    2.30035
atom: Maximum radius for r*vlocal+2*Zval:    2.00478
GHOST: No ghost state for L =  0
GHOST: No ghost state for L =  1
GHOST: No ghost state for L =  2
GHOST: No ghost state for L =  3

KBgen: Kleinman-Bylander projectors: 
   l= 0   rc=  2.134104   el= -1.010225   Ekb= 11.465766   kbcos=  0.116141
   l= 1   rc=  2.107589   el= -0.388560   Ekb= -6.457899   kbcos= -0.368830
   l= 2   rc=  2.300349   el=  0.001971   Ekb= -0.774314   kbcos= -0.017397
   l= 3   rc=  2.542323   el=  0.003065   Ekb= -0.308789   kbcos= -0.003148

KBgen: Total number of  Kleinman-Bylander projectors:   16
atom: -------------------------------------------------------------------------

atom: SANKEY-TYPE ORBITALS:
atom: Selected multiple-zeta basis: split     

SPLIT: Orbitals with angular momentum L= 0

SPLIT: Basis orbitals for state 2s

SPLIT: PAO cut-off radius determined from an
SPLIT: energy shift=  0.020000 Ry

   izeta = 1
                 lambda =    1.000000
                     rc =    4.088342
                 energy =   -0.989563
                kinetic =    0.944133
    potential(screened) =   -1.933696
       potential(ionic) =   -5.541314

   izeta = 2
                 rmatch =    3.347176
              splitnorm =    0.150000
                 energy =   -0.831414
                kinetic =    1.451472
    potential(screened) =   -2.282886
       potential(ionic) =   -6.119280

SPLIT: Orbitals with angular momentum L= 1

SPLIT: Basis orbitals for state 2p

SPLIT: PAO cut-off radius determined from an
SPLIT: energy shift=  0.020000 Ry

   izeta = 1
                 lambda =    1.000000
                     rc =    4.870301
                 energy =   -0.368749
                kinetic =    2.591962
    potential(screened) =   -2.960711
       potential(ionic) =   -6.464403

   izeta = 2
                 rmatch =    3.475094
              splitnorm =    0.150000
                 energy =   -0.206255
                kinetic =    3.888945
    potential(screened) =   -4.095199
       potential(ionic) =   -7.968192

POLgen: Perturbative polarization orbital with L=  2

POLgen: Polarization orbital for state 2p

   izeta = 1
                     rc =    4.870301
                 energy =    1.295231
                kinetic =    2.621946
    potential(screened) =   -1.326714
       potential(ionic) =   -4.277432
atom: Total number of Sankey-type orbitals: 13

atm_pop: Valence configuration (for local Pseudopot. screening):
 2s( 2.00)                                                            
 2p( 2.00)                                                            
Vna: chval, zval:    4.00000   4.00000

Vna:  Cut-off radius for the neutral-atom potential:   4.870301

atom: _________________________________________________________________________

prinput: Basis input ----------------------------------------------------------

PAO.BasisType split     

%block ChemicalSpeciesLabel
    1    1 H.mpn                   # Species index, atomic number, species label
    2    6 C.mpn                   # Species index, atomic number, species label
%endblock ChemicalSpeciesLabel

%block PAO.Basis                 # Define Basis set
H.mpn                 1                    # Species label, number of l-shells
 n=1   0   2 P   1                   # n, l, Nzeta, Polarization, NzetaPol
   4.709      3.760   
   1.000      1.000   
C.mpn                 2                    # Species label, number of l-shells
 n=2   0   2                         # n, l, Nzeta 
   4.088      3.347   
   1.000      1.000   
 n=2   1   2 P   1                   # n, l, Nzeta, Polarization, NzetaPol
   4.870      3.475   
   1.000      1.000   
%endblock PAO.Basis

prinput: ----------------------------------------------------------------------

Dumping basis to NetCDF file H.mpn.ion.nc
Dumping basis to NetCDF file C.mpn.ion.nc
coor:   Atomic-coordinates input format  =     Cartesian coordinates
coor:                                          (in Angstroms)

siesta: WARNING: XV file not found

siesta: Atomic coordinates (Bohr) and species
siesta:     22.66882  10.52730  18.89727  1        1
siesta:     21.19270  14.32949  18.89727  2        2
siesta:     27.10408   9.41089  18.89727  1        3
siesta:     23.11052  12.56415  18.89727  2        4
siesta:     25.69061  13.24021  18.89727  2        5
siesta:     21.83146  16.97349  18.89727  2        6
siesta:     24.41619  17.70265  18.89727  2        7
siesta:     23.14673  22.13349  18.89727  2        8
siesta:     19.19905  22.89161  18.89727  1        9
siesta:     31.59822   8.28574  18.89727  1       10
siesta:     27.60630  11.43703  18.89727  2       11
siesta:     30.15912  12.12802  18.89727  2       12
siesta:     26.34637  15.85867  18.89727  2       13
siesta:     28.91032  16.58190  18.89727  2       14
siesta:     25.09726  20.31225  18.89727  2       15
siesta:     27.65015  21.00355  18.89727  2       16
siesta:     32.10978  10.30678  18.89727  2       17
siesta:     34.59333  11.02823  18.89727  2       18
siesta:     30.84046  14.73763  18.89727  2       19
siesta:     33.42539  15.46638  18.89727  2       20
siesta:     29.56603  19.20049  18.89727  2       21
siesta:     32.14640  19.87586  18.89727  2       22
siesta:     23.66018  24.15395  18.89727  1       23
siesta:     36.05771   9.54901  18.89727  1       24
siesta:     35.32084  13.59796  18.89727  2       25
siesta:     34.06409  18.11040  18.89727  2       26
siesta:     36.69775  18.84199  18.89727  2       27
siesta:     28.15203  23.02992  18.89727  1       28
siesta:     37.42500  21.41205  18.89727  2       29
siesta:     32.58931  21.91242  18.89727  1       30

siesta: System type = chain     

initatomlists: Number of atoms, orbitals, and projectors:     30   326   424

siesta: ******************** Simulation parameters ****************************
siesta:
siesta: The following are some of the parameters of the simulation.
siesta: A complete list of the parameters used, including default values,
siesta: can be found in file out.fdf
siesta:
redata: Spin configuration                          = collinear
redata: Number of spin components                   = 2
redata: Time-Reversal Symmetry                      = T
redata: Spin-spiral                                 = F
redata: Long output                                 =   F
redata: Number of Atomic Species                    =        2
redata: Charge density info will appear in .RHO file
redata: Write Mulliken Pop.                         = Atomic and Orbital charges
redata: Mesh Cutoff                                 =   400.0000 Ry
redata: Net charge of the system                    =     0.0000 |e|
redata: Min. number of SCF Iter                     =        0
redata: Max. number of SCF Iter                     =     3000
redata: SCF convergence failure will abort job
redata: SCF mix quantity                            = Hamiltonian
redata: Mix DM or H after convergence               =   F
redata: Recompute H after scf cycle                 =   F
redata: Mix DM in first SCF step                    =   T
redata: Write Pulay info on disk                    =   F
redata: New DM Mixing Weight                        =     0.1000
redata: New DM Occupancy tolerance                  = 0.000000000001
redata: No kicks to SCF
redata: DM Mixing Weight for Kicks                  =     0.5000
redata: Require Harris convergence for SCF          =   F
redata: Harris energy tolerance for SCF             =     0.000100 eV
redata: Require DM convergence for SCF              =   T
redata: DM tolerance for SCF                        =     0.000010
redata: Require EDM convergence for SCF             =   F
redata: EDM tolerance for SCF                       =     0.001000 eV
redata: Require H convergence for SCF               =   T
redata: Hamiltonian tolerance for SCF               =     0.001000 eV
redata: Require (free) Energy convergence for SCF   =   F
redata: (free) Energy tolerance for SCF             =     0.000100 eV
redata: Antiferro initial spin density              =   F
redata: Using Saved Data (generic)                  =   F
redata: Use continuation files for DM               =   T
redata: Neglect nonoverlap interactions             =   F
redata: Method of Calculation                       = Diagonalization
redata: Electronic Temperature                      =   299.9869 K
redata: Fix the spin of the system                  =   F
redata: Dynamics option                             = CG coord. optimization
redata: Variable cell                               =   F
redata: Use continuation files for CG               =   F
redata: Max atomic displ per move                   =     0.1058 Ang
redata: Maximum number of CG moves                  =     1000
redata: Force tolerance                             =     0.0020 eV/Ang
mix.SCF: Pulay mixing                            = Pulay
mix.SCF:    Variant                              = stable
mix.SCF:    History steps                        = 7
mix.SCF:    Linear mixing weight                 =     0.100000
mix.SCF:    Mixing weight                        =     0.100000
mix.SCF:    SVD condition                        = 0.1000E-07
mix.SCF: Spin-component mixing                   all
redata: Save all siesta data in one NC              =   F
redata: ***********************************************************************

%block SCF.Mixers
  Pulay
%endblock SCF.Mixers

%block SCF.Mixer.Pulay
  # Mixing method
  method pulay
  variant stable

  # Mixing options
  weight 0.1000
  weight.linear 0.1000
  history 7
%endblock SCF.Mixer.Pulay
 
DM_history_depth set to one: no extrapolation allowed by default for geometry relaxation
Size of DM history Fstack: 1
Total number of electrons:    96.000000
Total ionic charge:    96.000000

* ProcessorY, Blocksize:    3  24


* Orbital distribution balance (max,min):    48    24

k-point displ. along   1 input, could be:     0.00    0.50
 Kpoints in:           51 . Kpoints trimmed:           51

siesta: k-grid: Number of k-points =    51
siesta: k-grid: Cutoff (effective) =    10.000 Ang
siesta: k-grid: Supercell and displacements
siesta: k-grid:  100   0   0      0.000
siesta: k-grid:    0   1   0      0.000
siesta: k-grid:    0   0   1      0.000
 
diag: Algorithm                                     = D&C
diag: Parallel over k                               =   T
diag: Use parallel 2D distribution                  =   T
diag: Parallel block-size                           = 24
diag: Parallel distribution                         =     3 x     4
diag: Used triangular part                          = Lower
diag: Absolute tolerance                            =  0.100E-15
diag: Orthogonalization factor                      =  0.100E-05
diag: Memory factor                                 =  1.0000

superc: Internal auxiliary supercell:     3 x     1 x     1  =       3
superc: Number of atoms, orbitals, and projectors:     90    978   1272
 
 
ts: **************************************************************
ts: Save H and S matrices                           =    T
ts: Save DM and EDM matrices                        =    F
ts: Fix Hartree potential                           =    F
ts: Only save the overlap matrix S                  =    F
ts: **************************************************************
 
************************ Begin: TS CHECKS AND WARNINGS ************************
************************ End: TS CHECKS AND WARNINGS **************************


                     ====================================
                        Begin CG opt. move =      0
                     ====================================

superc: Internal auxiliary supercell:     3 x     1 x     1  =       3
superc: Number of atoms, orbitals, and projectors:     90    978   1272

outcell: Unit cell vectors (Ang):
        8.970000    0.000000    0.000000
        0.000000   50.000000    0.000000
        0.000000    0.000000   20.000000

outcell: Cell vector modules (Ang)   :    8.970000   50.000000   20.000000
outcell: Cell angles (23,13,12) (deg):     90.0000     90.0000     90.0000
outcell: Cell volume (Ang**3)        :   8970.0000
<dSpData1D:S at geom step 0
  <sparsity:sparsity for geom step 0
    nrows_g=326 nrows=48 sparsity=.1874 nnzs=19916, refcount: 7>
  <dData1D:(new from dSpData1D) n=19916, refcount: 1>
refcount: 1>
new_DM -- step:     1
Initializing Density Matrix...
 
Attempting to read DM from file... Failed...
DM filled with atomic data (user-defined):
<dSpData2D:DM initialized from atoms
  <sparsity:sparsity for geom step 0
    nrows_g=326 nrows=48 sparsity=.1874 nnzs=19916, refcount: 8>
  <dData2D:DM n=19916 m=2, refcount: 1>
refcount: 1>

initDM: Initial spin polarization (Qup-Qdown) =    0.000000

No. of atoms with KB's overlaping orbs in proc 0. Max # of overlaps:      47     209
New grid distribution:   1
           1       1:   54    1:  107    1:   32
           2       1:   54    1:  107   33:   63
           3       1:   54    1:  107   64:   94
           4       1:   54    1:  107   95:  125
           5       1:   54  108:  214    1:   32
           6       1:   54  108:  214   33:   63
           7       1:   54  108:  214   64:   94
           8       1:   54  108:  214   95:  125
           9       1:   54  215:  320    1:   32
          10       1:   54  215:  320   33:   63
          11       1:   54  215:  320   64:   94
          12       1:   54  215:  320   95:  125

InitMesh: MESH =   108 x   640 x   250 =    17280000
InitMesh: (bp) =    54 x   320 x   125 =     2160000
InitMesh: Mesh cutoff (required, used) =   400.000   400.649 Ry
ExtMesh (bp) on 0 =   118 x   175 x   100 =     2065000
New grid distribution:   2
           1       1:   54    1:   45    1:   60
           2       1:   54   46:   50   61:  125
           3       1:   54    1:   39   61:  125
           4       1:   54   66:   71   61:  125
           5       1:   54   56:   65    1:   60
           6       1:   54   40:   45   61:  125
           7       1:   54   72:  320   61:  125
           8       1:   54   56:   60   61:  125
           9       1:   54   66:  320    1:   60
          10       1:   54   46:   55    1:   60
          11       1:   54   51:   55   61:  125
          12       1:   54   61:   65   61:  125
New grid distribution:   3
           1       1:   54    1:   38    1:   58
           2       1:   54   39:   47   59:  125
           3       1:   54    1:   28   59:  125
           4       1:   54   75:   84   59:  125
           5       1:   54   57:   74    1:   58
           6       1:   54   29:   38   59:  125
           7       1:   54   85:  320   59:  125
           8       1:   54   57:   65   59:  125
           9       1:   54   75:  320    1:   58
          10       1:   54   39:   56    1:   58
          11       1:   54   48:   56   59:  125
          12       1:   54   66:   74   59:  125
Setting up quadratic distribution...
ExtMesh (bp) on 0 =   118 x   113 x   128 =     1706752
PhiOnMesh: Number of (b)points on node 0 =               145800
PhiOnMesh: nlist on node 0 =               495748

stepf: Fermi-Dirac step function

siesta: Program's energy decomposition (eV):
siesta: Ebs     =     -1049.567125
siesta: Eions   =      4591.796754
siesta: Ena     =       471.904666
siesta: Ekin    =      2658.056766
siesta: Enl     =      -844.499511
siesta: Eso     =         0.000000
siesta: Eldau   =         0.000000
siesta: DEna    =       -92.904245
siesta: DUscf   =        11.148051
siesta: DUext   =         0.000000
siesta: Enegf   =         0.000000
siesta: Exc     =     -1137.940954
siesta: eta*DQ  =         0.000000
siesta: Emadel  =         0.000000
siesta: Emeta   =         0.000000
siesta: Emolmec =         0.000000
siesta: Ekinion =         0.000000
siesta: Eharris =     -3548.566986
siesta: Etot    =     -3526.031980
siesta: FreeEng =     -3526.031981

        iscf     Eharris(eV)        E_KS(eV)     FreeEng(eV)     dDmax    Ef(eV) dHmax(eV)
   scf:    1    -3548.566986    -3526.031980    -3526.031981  0.967800 -5.039088  5.062405
timer: Routine,Calls,Time,% = IterSCF        1       5.361  58.58
   scf:    2    -3527.382937    -3526.735092    -3526.735093  0.008707 -4.754034  4.141407
   scf:    3    -3528.178452    -3527.869896    -3527.869897  0.044024 -3.410103  1.494070
   scf:    4    -3528.145215    -3528.049718    -3528.049719  0.009373 -3.319888  0.448240
   scf:    5    -3528.093913    -3528.073258    -3528.073259  0.005239 -3.258341  0.318316
   scf:    6    -3528.099472    -3528.087570    -3528.087571  0.002111 -3.282744  0.194448
   scf:    7    -3528.101559    -3528.094637    -3528.094638  0.004384 -3.257391  0.162036
   scf:    8    -3528.098969    -3528.096961    -3528.096962  0.002757 -3.288494  0.129285
   scf:    9    -3528.099228    -3528.098272    -3528.098273  0.002523 -3.254284  0.095505
   scf:   10    -3528.099807    -3528.099050    -3528.099051  0.001699 -3.272189  0.045300
   scf:   11    -3528.099413    -3528.099225    -3528.099225  0.000552 -3.272343  0.036534
   scf:   12    -3528.099794    -3528.099483    -3528.099483  0.001166 -3.271846  0.019110
   scf:   13    -3528.099754    -3528.099600    -3528.099601  0.000950 -3.272118  0.008803
   scf:   14    -3528.099645    -3528.099621    -3528.099621  0.000280 -3.272193  0.006715
   scf:   15    -3528.099662    -3528.099639    -3528.099640  0.000319 -3.272193  0.004491
   scf:   16    -3528.099675    -3528.099655    -3528.099655  0.000314 -3.272166  0.003297
   scf:   17    -3528.099681    -3528.099666    -3528.099667  0.000222 -3.272229  0.002730
   scf:   18    -3528.099686    -3528.099675    -3528.099675  0.000164 -3.272149  0.002113
   scf:   19    -3528.099680    -3528.099677    -3528.099678  0.000047 -3.272145  0.002068
   scf:   20    -3528.099687    -3528.099681    -3528.099682  0.000098 -3.272177  0.001901
   scf:   21    -3528.099722    -3528.099694    -3528.099695  0.000385 -3.272141  0.001447
   scf:   22    -3528.099700    -3528.099696    -3528.099697  0.000121 -3.272128  0.001394
   scf:   23    -3528.099699    -3528.099698    -3528.099698  0.000077 -3.272139  0.001247
   scf:   24    -3528.099700    -3528.099699    -3528.099699  0.000085 -3.272152  0.001137
   scf:   25    -3528.099700    -3528.099699    -3528.099700  0.000070 -3.272159  0.000903
   scf:   26    -3528.099700    -3528.099700    -3528.099700  0.000032 -3.272177  0.000708
   scf:   27    -3528.099700    -3528.099700    -3528.099700  0.000026 -3.272177  0.000550
   scf:   28    -3528.099700    -3528.099700    -3528.099700  0.000031 -3.272169  0.000386
   scf:   29    -3528.099700    -3528.099700    -3528.099701  0.000047 -3.272172  0.000201
   scf:   30    -3528.099700    -3528.099700    -3528.099701  0.000008 -3.272172  0.000166

SCF Convergence by DM+H criterion
max |DM_out - DM_in|         :     0.0000075365
max |H_out - H_in|      (eV) :     0.0001657187
SCF cycle converged after 30 iterations

Using DM_out to compute the final energy and forces
No. of atoms with KB's overlaping orbs in proc 0. Max # of overlaps:      47     209

siesta: E_KS(eV) =            -3528.0997

siesta: E_KS - E_eggbox =     -3528.0997

siesta: Total spin polarization (Qup-Qdown) =    0.000000

siesta: Atomic forces (eV/Ang):
----------------------------------------
   Tot    0.026572   -0.022283    0.000000
----------------------------------------
   Max    4.788589
   Res    0.876900    sqrt( Sum f_i^2 / 3N )
----------------------------------------
   Max    4.788589    constrained

Stress-tensor-Voigt (kbar):       -2.23       -3.21        0.00        0.34       -0.00        0.00
(Free)E + p*V (eV/cell)    -3517.9540
Target enthalpy (eV/cell)    -3528.0997
 
mulliken: Atomic and Orbital Populations:

mulliken: Spin UP 

Species: H.mpn               
Atom  Qatom  Qorb
               1s      1s      1Ppy    1Ppz    1Ppx    
   1  0.618   0.417   0.150   0.022   0.017   0.012
   3  0.620   0.428   0.142   0.022   0.017   0.011
   9  0.624   0.413   0.157   0.017   0.019   0.018
  10  0.620   0.431   0.138   0.021   0.017   0.012
  23  0.621   0.430   0.139   0.021   0.018   0.012
  24  0.618   0.421   0.146   0.016   0.017   0.018
  28  0.620   0.427   0.142   0.022   0.017   0.011
  30  0.617   0.415   0.151   0.022   0.017   0.012

Species: C.mpn               
Atom  Qatom  Qorb
               2s      2s      2py     2pz     2px     2py     2pz     2px     
               2Pdxy   2Pdyz   2Pdz2   2Pdxz   2Pdx2-y2
   2  1.987   0.249   0.254   0.225   0.390   0.238   0.250   0.076   0.233
              0.019   0.015   0.001   0.015   0.022
   4  1.914   0.191   0.280   0.077   0.406   0.244   0.349   0.068   0.243
              0.015   0.005   0.001   0.015   0.021
   5  1.968   0.225   0.264   0.210   0.369   0.208   0.261   0.091   0.265
              0.021   0.015   0.001   0.017   0.022
   6  2.001   0.250   0.254   0.233   0.396   0.230   0.244   0.074   0.248
              0.021   0.014   0.002   0.015   0.021
   7  1.999   0.236   0.261   0.223   0.384   0.223   0.258   0.086   0.256
              0.021   0.014   0.001   0.015   0.021
   8  1.893   0.200   0.276   0.086   0.413   0.242   0.339   0.056   0.229
              0.014   0.004   0.001   0.014   0.019
  11  1.913   0.192   0.281   0.074   0.409   0.247   0.349   0.065   0.241
              0.015   0.004   0.001   0.015   0.020
  12  1.968   0.227   0.263   0.210   0.370   0.204   0.260   0.090   0.270
              0.021   0.014   0.001   0.017   0.021
  13  1.999   0.236   0.261   0.221   0.383   0.222   0.259   0.085   0.259
              0.021   0.014   0.002   0.015   0.021
  14  2.000   0.235   0.261   0.220   0.383   0.222   0.260   0.085   0.259
              0.021   0.014   0.002   0.015   0.021
  15  1.969   0.225   0.264   0.209   0.368   0.206   0.261   0.091   0.270
              0.021   0.014   0.001   0.017   0.022
  16  1.912   0.192   0.281   0.074   0.409   0.247   0.349   0.065   0.241
              0.015   0.004   0.001   0.015   0.020
  17  1.893   0.184   0.283   0.077   0.396   0.232   0.347   0.071   0.248
              0.015   0.004   0.001   0.015   0.019
  18  1.894   0.182   0.283   0.154   0.393   0.151   0.297   0.073   0.305
              0.022   0.010   0.001   0.010   0.013
  19  2.000   0.237   0.260   0.223   0.385   0.223   0.258   0.084   0.256
              0.021   0.014   0.002   0.015   0.021
  20  2.000   0.236   0.260   0.220   0.385   0.226   0.258   0.084   0.257
              0.021   0.015   0.001   0.015   0.022
  21  1.969   0.224   0.264   0.210   0.369   0.208   0.261   0.090   0.266
              0.021   0.015   0.001   0.017   0.022
  22  1.915   0.192   0.281   0.078   0.406   0.243   0.349   0.067   0.244
              0.014   0.005   0.001   0.015   0.020
  25  1.988   0.251   0.252   0.222   0.396   0.241   0.252   0.074   0.229
              0.020   0.015   0.001   0.014   0.021
  26  1.984   0.231   0.262   0.216   0.380   0.222   0.257   0.086   0.255
              0.020   0.015   0.001   0.017   0.022
  27  1.986   0.246   0.255   0.222   0.394   0.232   0.247   0.075   0.242
              0.021   0.014   0.001   0.015   0.020
  29  1.891   0.181   0.285   0.133   0.406   0.169   0.318   0.061   0.285
              0.022   0.009   0.001   0.009   0.012

mulliken: Qtot =       48.000

mulliken: Spin DOWN 

Species: H.mpn               
Atom  Qatom  Qorb
               1s      1s      1Ppy    1Ppz    1Ppx    
   1  0.618   0.417   0.150   0.022   0.017   0.012
   3  0.620   0.428   0.142   0.022   0.017   0.011
   9  0.624   0.413   0.157   0.017   0.019   0.018
  10  0.620   0.431   0.138   0.021   0.017   0.012
  23  0.621   0.430   0.139   0.021   0.018   0.012
  24  0.618   0.421   0.146   0.016   0.017   0.018
  28  0.620   0.427   0.142   0.022   0.017   0.011
  30  0.617   0.415   0.151   0.022   0.017   0.012

Species: C.mpn               
Atom  Qatom  Qorb
               2s      2s      2py     2pz     2px     2py     2pz     2px     
               2Pdxy   2Pdyz   2Pdz2   2Pdxz   2Pdx2-y2
   2  1.987   0.249   0.254   0.225   0.390   0.238   0.250   0.076   0.233
              0.019   0.015   0.001   0.015   0.022
   4  1.914   0.191   0.280   0.077   0.406   0.244   0.349   0.068   0.243
              0.015   0.004   0.001   0.015   0.021
   5  1.968   0.225   0.264   0.210   0.369   0.208   0.261   0.091   0.265
              0.021   0.015   0.001   0.017   0.022
   6  2.001   0.250   0.254   0.233   0.396   0.230   0.244   0.074   0.248
              0.021   0.014   0.002   0.015   0.021
   7  1.999   0.236   0.261   0.223   0.384   0.223   0.258   0.086   0.256
              0.021   0.014   0.001   0.015   0.021
   8  1.892   0.200   0.276   0.086   0.413   0.242   0.339   0.056   0.229
              0.014   0.004   0.001   0.014   0.019
  11  1.913   0.192   0.281   0.074   0.409   0.247   0.349   0.065   0.241
              0.015   0.004   0.001   0.015   0.020
  12  1.968   0.227   0.263   0.210   0.370   0.204   0.260   0.090   0.270
              0.021   0.014   0.001   0.017   0.021
  13  1.999   0.236   0.261   0.221   0.383   0.222   0.259   0.085   0.259
              0.021   0.014   0.002   0.015   0.021
  14  1.999   0.235   0.261   0.220   0.383   0.222   0.260   0.085   0.259
              0.021   0.014   0.002   0.015   0.021
  15  1.969   0.225   0.264   0.209   0.368   0.206   0.261   0.091   0.270
              0.021   0.014   0.001   0.017   0.022
  16  1.912   0.192   0.281   0.074   0.409   0.247   0.349   0.065   0.241
              0.015   0.004   0.001   0.015   0.020
  17  1.893   0.184   0.283   0.077   0.396   0.232   0.347   0.071   0.248
              0.015   0.004   0.001   0.015   0.019
  18  1.894   0.182   0.283   0.154   0.393   0.151   0.297   0.073   0.305
              0.022   0.010   0.001   0.010   0.013
  19  2.000   0.237   0.260   0.223   0.385   0.223   0.258   0.084   0.256
              0.021   0.014   0.002   0.015   0.021
  20  2.000   0.236   0.260   0.220   0.385   0.226   0.258   0.084   0.257
              0.021   0.015   0.001   0.015   0.022
  21  1.969   0.224   0.264   0.210   0.369   0.208   0.261   0.090   0.266
              0.021   0.015   0.001   0.017   0.022
  22  1.915   0.192   0.281   0.078   0.406   0.243   0.349   0.067   0.244
              0.014   0.005   0.001   0.015   0.020
  25  1.988   0.251   0.252   0.222   0.396   0.241   0.252   0.074   0.229
              0.020   0.015   0.001   0.014   0.021
  26  1.984   0.231   0.262   0.216   0.380   0.222   0.257   0.086   0.255
              0.020   0.015   0.001   0.017   0.022
  27  1.985   0.246   0.255   0.222   0.394   0.232   0.247   0.075   0.242
              0.021   0.014   0.001   0.015   0.020
  29  1.891   0.181   0.285   0.133   0.406   0.169   0.318   0.061   0.285
              0.022   0.009   0.001   0.009   0.012

mulliken: Qtot =       48.000

                     ====================================
                        Begin CG opt. move =      1
                     ====================================

superc: Internal auxiliary supercell:     3 x     1 x     1  =       3
superc: Number of atoms, orbitals, and projectors:     90    978   1272

outcell: Unit cell vectors (Ang):
        8.970000    0.000000    0.000000
        0.000000   50.000000    0.000000
        0.000000    0.000000   20.000000

outcell: Cell vector modules (Ang)   :    8.970000   50.000000   20.000000
outcell: Cell angles (23,13,12) (deg):     90.0000     90.0000     90.0000
outcell: Cell volume (Ang**3)        :   8970.0000
<dSpData1D:S at geom step 1
  <sparsity:sparsity for geom step 1
    nrows_g=326 nrows=48 sparsity=.1874 nnzs=19916, refcount: 7>
  <dData1D:(new from dSpData1D) n=19916, refcount: 1>
refcount: 1>
new_DM -- step:     2
Re-using DM from previous geometries...
Number of DMs in history: 1
 DM extrapolation coefficients: 
1   1.00000
New DM after history re-use:
<dSpData2D:SpM extrapolated using coords
  <sparsity:sparsity for geom step 1
    nrows_g=326 nrows=48 sparsity=.1874 nnzs=19916, refcount: 8>
  <dData2D:(temp array for extrapolation) n=19916 m=2, refcount: 1>
refcount: 1>
No. of atoms with KB's overlaping orbs in proc 0. Max # of overlaps:      47     209
New grid distribution:   1
           1       1:   54    1:  107    1:   32
           2       1:   54    1:  107   33:   63
           3       1:   54    1:  107   64:   94
           4       1:   54    1:  107   95:  125
           5       1:   54  108:  214    1:   32
           6       1:   54  108:  214   33:   63
           7       1:   54  108:  214   64:   94
           8       1:   54  108:  214   95:  125
           9       1:   54  215:  320    1:   32
          10       1:   54  215:  320   33:   63
          11       1:   54  215:  320   64:   94
          12       1:   54  215:  320   95:  125

InitMesh: MESH =   108 x   640 x   250 =    17280000
InitMesh: (bp) =    54 x   320 x   125 =     2160000
InitMesh: Mesh cutoff (required, used) =   400.000   400.649 Ry
ExtMesh (bp) on 0 =   118 x   175 x   100 =     2065000
New grid distribution:   2
           1       1:   54    1:   45    1:   60
           2       1:   54   46:   50   61:  125
           3       1:   54    1:   39   61:  125
           4       1:   54   66:   71   61:  125
           5       1:   54   56:   65    1:   60
           6       1:   54   40:   45   61:  125
           7       1:   54   72:  320   61:  125
           8       1:   54   56:   60   61:  125
           9       1:   54   66:  320    1:   60
          10       1:   54   46:   55    1:   60
          11       1:   54   51:   55   61:  125
          12       1:   54   61:   65   61:  125
New grid distribution:   3
           1       1:   54    1:   38    1:   58
           2       1:   54   39:   47   59:  125
           3       1:   54    1:   28   59:  125
           4       1:   54   75:   84   59:  125
           5       1:   54   57:   74    1:   58
           6       1:   54   29:   38   59:  125
           7       1:   54   85:  320   59:  125
           8       1:   54   57:   65   59:  125
           9       1:   54   75:  320    1:   58
          10       1:   54   39:   56    1:   58
          11       1:   54   48:   56   59:  125
          12       1:   54   66:   74   59:  125
Setting up quadratic distribution...
ExtMesh (bp) on 0 =   118 x   113 x   128 =     1706752
PhiOnMesh: Number of (b)points on node 0 =               145800
PhiOnMesh: nlist on node 0 =               496408

        iscf     Eharris(eV)        E_KS(eV)     FreeEng(eV)     dDmax    Ef(eV) dHmax(eV)
   scf:    1    -3528.029290    -3528.266908    -3528.266910  0.026496 -3.267755  1.750092
   scf:    2    -3521.179033    -3526.210085    -3526.210085  0.044750 -3.276921  5.536273
   scf:    3    -3528.927848    -3528.491050    -3528.491051  0.035821 -3.272742  0.328383
   scf:    4    -3528.504942    -3528.501410    -3528.501411  0.002573 -3.275454  0.128385
   scf:    5    -3528.499857    -3528.501993    -3528.501995  0.001775 -3.276368  0.181548
   scf:    6    -3528.504613    -3528.503628    -3528.503629  0.000871 -3.278116  0.062640
   scf:    7    -3528.503881    -3528.503888    -3528.503890  0.000576 -3.278522  0.014743
   scf:    8    -3528.503920    -3528.503913    -3528.503915  0.000154 -3.278314  0.003583
   scf:    9    -3528.503915    -3528.503915    -3528.503916  0.000021 -3.278293  0.002301
   scf:   10    -3528.503917    -3528.503916    -3528.503917  0.000046 -3.278258  0.000424
   scf:   11    -3528.503916    -3528.503916    -3528.503918  0.000003 -3.278267  0.000343

SCF Convergence by DM+H criterion
max |DM_out - DM_in|         :     0.0000032371
max |H_out - H_in|      (eV) :     0.0003425643
SCF cycle converged after 11 iterations

Using DM_out to compute the final energy and forces
No. of atoms with KB's overlaping orbs in proc 0. Max # of overlaps:      47     209

siesta: E_KS(eV) =            -3528.5039

siesta: Total spin polarization (Qup-Qdown) =    0.000000

siesta: Atomic forces (eV/Ang):
----------------------------------------
   Tot   -0.006337   -0.019470   -0.000000
----------------------------------------
   Max    1.246415
   Res    0.343578    sqrt( Sum f_i^2 / 3N )
----------------------------------------
   Max    1.246415    constrained

Stress-tensor-Voigt (kbar):       -1.97       -2.68        0.00        0.00       -0.00        0.00
(Free)E + p*V (eV/cell)    -3519.8296
Target enthalpy (eV/cell)    -3528.5039
 
mulliken: Atomic and Orbital Populations:

mulliken: Spin UP 

Species: H.mpn               
Atom  Qatom  Qorb
               1s      1s      1Ppy    1Ppz    1Ppx    
   1  0.619   0.415   0.153   0.022   0.017   0.012
   3  0.621   0.426   0.144   0.022   0.018   0.011
   9  0.616   0.421   0.144   0.017   0.016   0.017
  10  0.621   0.429   0.141   0.021   0.018   0.012
  23  0.619   0.433   0.136   0.021   0.017   0.012
  24  0.619   0.420   0.148   0.017   0.017   0.018
  28  0.621   0.426   0.144   0.022   0.018   0.011
  30  0.619   0.414   0.153   0.022   0.017   0.012

Species: C.mpn               
Atom  Qatom  Qorb
               2s      2s      2py     2pz     2px     2py     2pz     2px     
               2Pdxy   2Pdyz   2Pdz2   2Pdxz   2Pdx2-y2
   2  1.986   0.245   0.256   0.225   0.390   0.230   0.247   0.076   0.243
              0.020   0.015   0.001   0.016   0.022
   4  1.913   0.193   0.280   0.076   0.411   0.247   0.350   0.062   0.238
              0.014   0.004   0.001   0.015   0.020
   5  1.969   0.227   0.263   0.210   0.371   0.211   0.261   0.089   0.262
              0.021   0.015   0.001   0.017   0.022
   6  2.001   0.246   0.256   0.230   0.393   0.228   0.248   0.076   0.251
              0.021   0.014   0.001   0.015   0.022
   7  2.000   0.241   0.258   0.227   0.388   0.226   0.255   0.082   0.251
              0.021   0.014   0.002   0.015   0.021
   8  1.894   0.190   0.280   0.088   0.401   0.229   0.336   0.068   0.248
              0.016   0.004   0.001   0.015   0.019
  11  1.911   0.191   0.281   0.071   0.410   0.249   0.353   0.063   0.239
              0.015   0.004   0.001   0.015   0.020
  12  1.968   0.229   0.262   0.209   0.370   0.207   0.261   0.089   0.267
              0.021   0.014   0.001   0.017   0.021
  13  2.000   0.236   0.261   0.221   0.383   0.223   0.259   0.085   0.258
              0.021   0.014   0.001   0.015   0.021
  14  2.000   0.235   0.261   0.220   0.383   0.223   0.259   0.085   0.258
              0.021   0.014   0.001   0.015   0.021
  15  1.969   0.233   0.261   0.216   0.374   0.207   0.255   0.085   0.265
              0.021   0.014   0.001   0.017   0.021
  16  1.912   0.191   0.281   0.071   0.411   0.249   0.352   0.063   0.238
              0.015   0.004   0.001   0.015   0.020
  17  1.892   0.184   0.283   0.075   0.399   0.235   0.350   0.068   0.244
              0.015   0.004   0.001   0.015   0.019
  18  1.893   0.185   0.282   0.155   0.398   0.152   0.295   0.068   0.302
              0.022   0.010   0.001   0.010   0.013
  19  2.000   0.237   0.260   0.224   0.386   0.224   0.257   0.084   0.255
              0.021   0.014   0.002   0.015   0.021
  20  2.000   0.240   0.259   0.224   0.388   0.226   0.254   0.081   0.255
              0.021   0.015   0.001   0.015   0.022
  21  1.968   0.226   0.263   0.209   0.370   0.211   0.260   0.089   0.263
              0.021   0.015   0.001   0.017   0.022
  22  1.913   0.191   0.281   0.075   0.408   0.246   0.352   0.064   0.240
              0.014   0.004   0.001   0.015   0.020
  25  1.987   0.246   0.255   0.221   0.393   0.233   0.250   0.076   0.241
              0.021   0.014   0.001   0.015   0.021
  26  1.985   0.237   0.259   0.218   0.384   0.227   0.255   0.082   0.248
              0.020   0.015   0.001   0.016   0.022
  27  1.988   0.243   0.256   0.222   0.392   0.228   0.250   0.078   0.246
              0.021   0.014   0.001   0.015   0.021
  29  1.897   0.190   0.280   0.151   0.396   0.162   0.297   0.071   0.295
              0.022   0.010   0.001   0.010   0.013

mulliken: Qtot =       48.000

mulliken: Spin DOWN 

Species: H.mpn               
Atom  Qatom  Qorb
               1s      1s      1Ppy    1Ppz    1Ppx    
   1  0.619   0.415   0.153   0.022   0.017   0.012
   3  0.621   0.426   0.144   0.022   0.018   0.011
   9  0.616   0.421   0.144   0.017   0.016   0.017
  10  0.621   0.429   0.141   0.021   0.018   0.012
  23  0.619   0.433   0.136   0.021   0.017   0.012
  24  0.619   0.420   0.148   0.017   0.017   0.018
  28  0.621   0.426   0.144   0.022   0.018   0.011
  30  0.619   0.414   0.153   0.022   0.017   0.012

Species: C.mpn               
Atom  Qatom  Qorb
               2s      2s      2py     2pz     2px     2py     2pz     2px     
               2Pdxy   2Pdyz   2Pdz2   2Pdxz   2Pdx2-y2
   2  1.986   0.245   0.256   0.225   0.390   0.230   0.247   0.076   0.243
              0.020   0.015   0.001   0.016   0.022
   4  1.913   0.193   0.280   0.076   0.411   0.247   0.350   0.062   0.238
              0.014   0.004   0.001   0.015   0.020
   5  1.969   0.227   0.263   0.210   0.371   0.211   0.261   0.089   0.262
              0.021   0.015   0.001   0.017   0.022
   6  2.001   0.246   0.256   0.230   0.393   0.228   0.248   0.076   0.251
              0.021   0.014   0.001   0.015   0.022
   7  2.000   0.241   0.258   0.227   0.388   0.226   0.255   0.082   0.251
              0.021   0.014   0.002   0.015   0.021
   8  1.894   0.190   0.280   0.088   0.401   0.229   0.336   0.068   0.248
              0.016   0.004   0.001   0.015   0.019
  11  1.911   0.191   0.281   0.071   0.410   0.249   0.353   0.063   0.239
              0.015   0.004   0.001   0.015   0.020
  12  1.968   0.229   0.262   0.209   0.370   0.207   0.261   0.089   0.267
              0.021   0.014   0.001   0.017   0.021
  13  2.000   0.236   0.261   0.221   0.383   0.223   0.259   0.085   0.258
              0.021   0.014   0.001   0.015   0.021
  14  1.999   0.235   0.261   0.220   0.383   0.223   0.259   0.085   0.258
              0.021   0.014   0.001   0.015   0.021
  15  1.969   0.233   0.261   0.216   0.374   0.207   0.255   0.085   0.265
              0.021   0.014   0.001   0.017   0.021
  16  1.911   0.191   0.281   0.071   0.411   0.249   0.352   0.063   0.238
              0.015   0.004   0.001   0.015   0.020
  17  1.892   0.184   0.283   0.075   0.399   0.235   0.350   0.068   0.244
              0.015   0.004   0.001   0.015   0.019
  18  1.893   0.185   0.282   0.155   0.398   0.152   0.295   0.068   0.302
              0.022   0.010   0.001   0.010   0.013
  19  2.000   0.237   0.260   0.224   0.386   0.224   0.257   0.084   0.255
              0.021   0.014   0.002   0.015   0.021
  20  2.000   0.240   0.259   0.224   0.388   0.226   0.254   0.081   0.255
              0.021   0.015   0.001   0.015   0.022
  21  1.968   0.226   0.263   0.209   0.370   0.211   0.260   0.089   0.263
              0.021   0.015   0.001   0.017   0.022
  22  1.913   0.191   0.281   0.075   0.408   0.246   0.352   0.064   0.240
              0.014   0.004   0.001   0.015   0.020
  25  1.988   0.246   0.255   0.221   0.393   0.233   0.250   0.076   0.241
              0.021   0.014   0.001   0.015   0.021
  26  1.985   0.237   0.259   0.218   0.384   0.227   0.255   0.082   0.248
              0.020   0.015   0.001   0.016   0.022
  27  1.988   0.243   0.256   0.222   0.391   0.228   0.250   0.078   0.246
              0.021   0.014   0.001   0.015   0.021
  29  1.897   0.190   0.280   0.151   0.396   0.162   0.297   0.071   0.295
              0.022   0.010   0.001   0.010   0.013

mulliken: Qtot =       48.000

                     ====================================
                        Begin CG opt. move =      2
                     ====================================

superc: Internal auxiliary supercell:     3 x     1 x     1  =       3
superc: Number of atoms, orbitals, and projectors:     90    978   1272

outcell: Unit cell vectors (Ang):
        8.970000    0.000000    0.000000
        0.000000   50.000000    0.000000
        0.000000    0.000000   20.000000

outcell: Cell vector modules (Ang)   :    8.970000   50.000000   20.000000
outcell: Cell angles (23,13,12) (deg):     90.0000     90.0000     90.0000
outcell: Cell volume (Ang**3)        :   8970.0000
<dSpData1D:S at geom step 2
  <sparsity:sparsity for geom step 2
    nrows_g=326 nrows=48 sparsity=.1874 nnzs=19916, refcount: 7>
  <dData1D:(new from dSpData1D) n=19916, refcount: 1>
refcount: 1>
new_DM -- step:     3
Re-using DM from previous geometries...
Number of DMs in history: 1
 DM extrapolation coefficients: 
1   1.00000
New DM after history re-use:
<dSpData2D:SpM extrapolated using coords
  <sparsity:sparsity for geom step 2
    nrows_g=326 nrows=48 sparsity=.1874 nnzs=19916, refcount: 8>
  <dData2D:(temp array for extrapolation) n=19916 m=2, refcount: 1>
refcount: 1>
No. of atoms with KB's overlaping orbs in proc 0. Max # of overlaps:      47     209
New grid distribution:   1
           1       1:   54    1:  107    1:   32
           2       1:   54    1:  107   33:   63
           3       1:   54    1:  107   64:   94
           4       1:   54    1:  107   95:  125
           5       1:   54  108:  214    1:   32
           6       1:   54  108:  214   33:   63
           7       1:   54  108:  214   64:   94
           8       1:   54  108:  214   95:  125
           9       1:   54  215:  320    1:   32
          10       1:   54  215:  320   33:   63
          11       1:   54  215:  320   64:   94
          12       1:   54  215:  320   95:  125

InitMesh: MESH =   108 x   640 x   250 =    17280000
InitMesh: (bp) =    54 x   320 x   125 =     2160000
InitMesh: Mesh cutoff (required, used) =   400.000   400.649 Ry
ExtMesh (bp) on 0 =   118 x   175 x   100 =     2065000
New grid distribution:   2
           1       1:   54    1:   45    1:   60
           2       1:   54   46:   50   61:  125
           3       1:   54    1:   39   61:  125
           4       1:   54   66:   71   61:  125
           5       1:   54   56:   65    1:   60
           6       1:   54   40:   45   61:  125
           7       1:   54   72:  320   61:  125
           8       1:   54   56:   60   61:  125
           9       1:   54   66:  320    1:   60
          10       1:   54   46:   55    1:   60
          11       1:   54   51:   55   61:  125
          12       1:   54   61:   65   61:  125
New grid distribution:   3
           1       1:   54    1:   38    1:   58
           2       1:   54   39:   47   59:  125
           3       1:   54    1:   28   59:  125
           4       1:   54   75:   84   59:  125
           5       1:   54   57:   74    1:   58
           6       1:   54   29:   38   59:  125
           7       1:   54   85:  320   59:  125
           8       1:   54   57:   65   59:  125
           9       1:   54   75:  320    1:   58
          10       1:   54   39:   56    1:   58
          11       1:   54   48:   56   59:  125
          12       1:   54   66:   74   59:  125
Setting up quadratic distribution...
ExtMesh (bp) on 0 =   118 x   113 x   128 =     1706752
PhiOnMesh: Number of (b)points on node 0 =               145800
PhiOnMesh: nlist on node 0 =               496319

        iscf     Eharris(eV)        E_KS(eV)     FreeEng(eV)     dDmax    Ef(eV) dHmax(eV)
   scf:    1    -3528.486398    -3528.505392    -3528.505394  0.002490 -3.278529  0.161643
   scf:    2    -3528.437688    -3528.485492    -3528.485493  0.004742 -3.277106  0.535925
   scf:    3    -3528.511023    -3528.507292    -3528.507293  0.003944 -3.278185  0.026534
   scf:    4    -3528.507431    -3528.507380    -3528.507381  0.000125 -3.278010  0.017036
   scf:    5    -3528.507409    -3528.507398    -3528.507399  0.000069 -3.277802  0.006257
   scf:    6    -3528.507402    -3528.507400    -3528.507401  0.000030 -3.277718  0.001491
   scf:    7    -3528.507400    -3528.507400    -3528.507401  0.000011 -3.277729  0.000586
   scf:    8    -3528.507400    -3528.507400    -3528.507402  0.000006 -3.277742  0.000256

SCF Convergence by DM+H criterion
max |DM_out - DM_in|         :     0.0000056384
max |H_out - H_in|      (eV) :     0.0002556147
SCF cycle converged after 8 iterations

Using DM_out to compute the final energy and forces
No. of atoms with KB's overlaping orbs in proc 0. Max # of overlaps:      47     209

siesta: E_KS(eV) =            -3528.5074

siesta: Total spin polarization (Qup-Qdown) =    0.000000

siesta: Atomic forces (eV/Ang):
----------------------------------------
   Tot   -0.004375   -0.019379   -0.000000
----------------------------------------
   Max    1.134824
   Res    0.306614    sqrt( Sum f_i^2 / 3N )
----------------------------------------
   Max    1.134824    constrained

Stress-tensor-Voigt (kbar):       -1.97       -2.71        0.00        0.03        0.00        0.00
(Free)E + p*V (eV/cell)    -3519.7756
Target enthalpy (eV/cell)    -3528.5074
 
mulliken: Atomic and Orbital Populations:

mulliken: Spin UP 

Species: H.mpn               
Atom  Qatom  Qorb
               1s      1s      1Ppy    1Ppz    1Ppx    
   1  0.619   0.415   0.153   0.022   0.017   0.012
   3  0.621   0.426   0.144   0.022   0.018   0.011
   9  0.616   0.420   0.146   0.017   0.017   0.018
  10  0.621   0.430   0.140   0.021   0.018   0.012
  23  0.619   0.433   0.136   0.021   0.017   0.012
  24  0.619   0.420   0.148   0.017   0.017   0.018
  28  0.621   0.426   0.144   0.022   0.018   0.011
  30  0.619   0.414   0.153   0.022   0.017   0.012

Species: C.mpn               
Atom  Qatom  Qorb
               2s      2s      2py     2pz     2px     2py     2pz     2px     
               2Pdxy   2Pdyz   2Pdz2   2Pdxz   2Pdx2-y2
   2  1.986   0.245   0.256   0.225   0.390   0.231   0.247   0.076   0.243
              0.020   0.015   0.001   0.016   0.022
   4  1.913   0.193   0.280   0.076   0.411   0.247   0.350   0.063   0.238
              0.014   0.004   0.001   0.015   0.020
   5  1.969   0.227   0.263   0.210   0.371   0.211   0.261   0.089   0.262
              0.021   0.015   0.001   0.017   0.022
   6  2.001   0.246   0.256   0.230   0.393   0.228   0.247   0.076   0.251
              0.021   0.014   0.001   0.015   0.022
   7  2.000   0.240   0.259   0.226   0.388   0.226   0.255   0.082   0.251
              0.021   0.014   0.002   0.015   0.021
   8  1.894   0.191   0.280   0.088   0.402   0.230   0.336   0.067   0.247
              0.016   0.004   0.001   0.015   0.019
  11  1.911   0.191   0.281   0.071   0.410   0.249   0.352   0.063   0.239
              0.015   0.004   0.001   0.015   0.020
  12  1.968   0.229   0.263   0.209   0.370   0.207   0.261   0.089   0.267
              0.021   0.014   0.001   0.017   0.021
  13  2.000   0.236   0.261   0.221   0.383   0.223   0.259   0.085   0.258
              0.021   0.014   0.001   0.015   0.021
  14  2.000   0.235   0.261   0.220   0.383   0.223   0.259   0.085   0.259
              0.021   0.014   0.001   0.015   0.021
  15  1.969   0.232   0.261   0.215   0.374   0.207   0.255   0.086   0.265
              0.021   0.014   0.001   0.017   0.021
  16  1.912   0.191   0.281   0.071   0.411   0.249   0.352   0.063   0.238
              0.015   0.004   0.001   0.015   0.020
  17  1.892   0.184   0.283   0.075   0.399   0.234   0.350   0.068   0.244
              0.015   0.004   0.001   0.015   0.019
  18  1.893   0.185   0.283   0.155   0.398   0.152   0.295   0.068   0.303
              0.022   0.010   0.001   0.010   0.013
  19  2.000   0.237   0.260   0.224   0.386   0.224   0.257   0.084   0.255
              0.021   0.014   0.002   0.015   0.021
  20  2.000   0.239   0.259   0.223   0.388   0.226   0.255   0.081   0.255
              0.021   0.015   0.001   0.015   0.022
  21  1.968   0.226   0.264   0.209   0.370   0.211   0.260   0.089   0.263
              0.021   0.015   0.001   0.017   0.022
  22  1.913   0.191   0.281   0.075   0.408   0.246   0.352   0.065   0.240
              0.014   0.004   0.001   0.015   0.020
  25  1.988   0.246   0.255   0.221   0.394   0.233   0.250   0.076   0.240
              0.021   0.014   0.001   0.015   0.021
  26  1.985   0.236   0.260   0.218   0.384   0.227   0.255   0.082   0.249
              0.020   0.015   0.001   0.016   0.022
  27  1.988   0.243   0.256   0.222   0.392   0.228   0.250   0.078   0.246
              0.021   0.014   0.001   0.015   0.021
  29  1.896   0.190   0.280   0.149   0.397   0.163   0.299   0.070   0.294
              0.022   0.010   0.001   0.010   0.013

mulliken: Qtot =       48.000

mulliken: Spin DOWN 

Species: H.mpn               
Atom  Qatom  Qorb
               1s      1s      1Ppy    1Ppz    1Ppx    
   1  0.619   0.415   0.153   0.022   0.017   0.012
   3  0.621   0.426   0.144   0.022   0.018   0.011
   9  0.616   0.420   0.146   0.017   0.017   0.018
  10  0.621   0.430   0.140   0.021   0.018   0.012
  23  0.619   0.433   0.136   0.021   0.017   0.012
  24  0.619   0.420   0.148   0.017   0.017   0.018
  28  0.621   0.426   0.144   0.022   0.018   0.011
  30  0.619   0.414   0.153   0.022   0.017   0.012

Species: C.mpn               
Atom  Qatom  Qorb
               2s      2s      2py     2pz     2px     2py     2pz     2px     
               2Pdxy   2Pdyz   2Pdz2   2Pdxz   2Pdx2-y2
   2  1.986   0.245   0.256   0.225   0.390   0.231   0.247   0.076   0.243
              0.020   0.015   0.001   0.016   0.022
   4  1.913   0.193   0.280   0.076   0.411   0.247   0.350   0.063   0.238
              0.014   0.004   0.001   0.015   0.020
   5  1.969   0.227   0.263   0.210   0.371   0.211   0.261   0.089   0.262
              0.021   0.015   0.001   0.017   0.022
   6  2.001   0.246   0.256   0.230   0.393   0.228   0.247   0.076   0.251
              0.021   0.014   0.001   0.015   0.022
   7  2.000   0.240   0.259   0.226   0.388   0.226   0.255   0.082   0.251
              0.021   0.014   0.002   0.015   0.021
   8  1.894   0.191   0.280   0.088   0.402   0.230   0.336   0.067   0.247
              0.016   0.004   0.001   0.015   0.019
  11  1.911   0.191   0.281   0.071   0.410   0.249   0.352   0.063   0.239
              0.015   0.004   0.001   0.015   0.020
  12  1.968   0.229   0.263   0.209   0.370   0.207   0.261   0.089   0.267
              0.021   0.014   0.001   0.017   0.021
  13  2.000   0.236   0.261   0.221   0.383   0.223   0.259   0.085   0.258
              0.021   0.014   0.001   0.015   0.021
  14  1.999   0.235   0.261   0.220   0.383   0.223   0.259   0.085   0.259
              0.021   0.014   0.001   0.015   0.021
  15  1.969   0.232   0.261   0.215   0.374   0.207   0.255   0.086   0.265
              0.021   0.014   0.001   0.017   0.021
  16  1.912   0.191   0.281   0.071   0.411   0.249   0.352   0.063   0.238
              0.015   0.004   0.001   0.015   0.020
  17  1.892   0.184   0.283   0.075   0.399   0.234   0.350   0.068   0.244
              0.015   0.004   0.001   0.015   0.019
  18  1.893   0.185   0.283   0.155   0.398   0.152   0.295   0.068   0.303
              0.022   0.010   0.001   0.010   0.013
  19  2.000   0.237   0.260   0.224   0.386   0.224   0.257   0.084   0.255
              0.021   0.014   0.002   0.015   0.021
  20  2.000   0.239   0.259   0.223   0.388   0.226   0.255   0.081   0.255
              0.021   0.015   0.001   0.015   0.022
  21  1.968   0.226   0.264   0.209   0.370   0.211   0.260   0.089   0.263
              0.021   0.015   0.001   0.017   0.022
  22  1.913   0.191   0.281   0.075   0.408   0.246   0.352   0.065   0.240
              0.014   0.004   0.001   0.015   0.020
  25  1.988   0.246   0.255   0.221   0.394   0.233   0.250   0.076   0.240
              0.021   0.014   0.001   0.015   0.021
  26  1.985   0.236   0.260   0.218   0.384   0.227   0.255   0.082   0.249
              0.020   0.015   0.001   0.016   0.022
  27  1.987   0.243   0.256   0.222   0.392   0.228   0.250   0.078   0.246
              0.021   0.014   0.001   0.015   0.021
  29  1.896   0.190   0.280   0.149   0.397   0.163   0.299   0.070   0.294
              0.022   0.010   0.001   0.010   0.013

mulliken: Qtot =       48.000

cgvc: Finished line minimization    1.  Mean atomic displacement =    0.0333

                     ====================================
                        Begin CG opt. move =      3
                     ====================================

superc: Internal auxiliary supercell:     3 x     1 x     1  =       3
superc: Number of atoms, orbitals, and projectors:     90    978   1272

outcell: Unit cell vectors (Ang):
        8.970000    0.000000    0.000000
        0.000000   50.000000    0.000000
        0.000000    0.000000   20.000000

outcell: Cell vector modules (Ang)   :    8.970000   50.000000   20.000000
outcell: Cell angles (23,13,12) (deg):     90.0000     90.0000     90.0000
outcell: Cell volume (Ang**3)        :   8970.0000
<dSpData1D:S at geom step 3
  <sparsity:sparsity for geom step 3
    nrows_g=326 nrows=48 sparsity=.1874 nnzs=19916, refcount: 7>
  <dData1D:(new from dSpData1D) n=19916, refcount: 1>
refcount: 1>
new_DM -- step:     4
Re-using DM from previous geometries...
Number of DMs in history: 1
 DM extrapolation coefficients: 
1   1.00000
New DM after history re-use:
<dSpData2D:SpM extrapolated using coords
  <sparsity:sparsity for geom step 3
    nrows_g=326 nrows=48 sparsity=.1874 nnzs=19916, refcount: 8>
  <dData2D:(temp array for extrapolation) n=19916 m=2, refcount: 1>
refcount: 1>
No. of atoms with KB's overlaping orbs in proc 0. Max # of overlaps:      47     209
New grid distribution:   1
           1       1:   54    1:  107    1:   32
           2       1:   54    1:  107   33:   63
           3       1:   54    1:  107   64:   94
           4       1:   54    1:  107   95:  125
           5       1:   54  108:  214    1:   32
           6       1:   54  108:  214   33:   63
           7       1:   54  108:  214   64:   94
           8       1:   54  108:  214   95:  125
           9       1:   54  215:  320    1:   32
          10       1:   54  215:  320   33:   63
          11       1:   54  215:  320   64:   94
          12       1:   54  215:  320   95:  125

InitMesh: MESH =   108 x   640 x   250 =    17280000
InitMesh: (bp) =    54 x   320 x   125 =     2160000
InitMesh: Mesh cutoff (required, used) =   400.000   400.649 Ry
ExtMesh (bp) on 0 =   118 x   175 x   100 =     2065000
New grid distribution:   2
           1       1:   54    1:   45    1:   60
           2       1:   54   46:   50   61:  125
           3       1:   54    1:   39   61:  125
           4       1:   54   66:   71   61:  125
           5       1:   54   56:   65    1:   60
           6       1:   54   40:   45   61:  125
           7       1:   54   72:  320   61:  125
           8       1:   54   56:   60   61:  125
           9       1:   54   66:  320    1:   60
          10       1:   54   46:   55    1:   60
          11       1:   54   51:   55   61:  125
          12       1:   54   61:   65   61:  125
New grid distribution:   3
           1       1:   54    1:   38    1:   58
           2       1:   54   39:   47   59:  125
           3       1:   54    1:   28   59:  125
           4       1:   54   75:   84   59:  125
           5       1:   54   57:   74    1:   58
           6       1:   54   29:   38   59:  125
           7       1:   54   85:  320   59:  125
           8       1:   54   57:   65   59:  125
           9       1:   54   75:  320    1:   58
          10       1:   54   39:   56    1:   58
          11       1:   54   48:   56   59:  125
          12       1:   54   66:   74   59:  125
Setting up quadratic distribution...
ExtMesh (bp) on 0 =   118 x   113 x   128 =     1706752
PhiOnMesh: Number of (b)points on node 0 =               145800
PhiOnMesh: nlist on node 0 =               497611

        iscf     Eharris(eV)        E_KS(eV)     FreeEng(eV)     dDmax    Ef(eV) dHmax(eV)
   scf:    1    -3527.666905    -3528.167265    -3528.167267  0.019865 -3.283297  2.219423
   scf:    2    -3516.016276    -3524.662179    -3524.662181  0.038515 -3.307900  6.598143
   scf:    3    -3529.479237    -3528.566639    -3528.566641  0.029740 -3.292377  0.189941
   scf:    4    -3528.571000    -3528.569294    -3528.569296  0.000785 -3.292081  0.101846
   scf:    5    -3528.570209    -3528.569857    -3528.569859  0.000474 -3.291984  0.055795
   scf:    6    -3528.570082    -3528.569986    -3528.569988  0.000203 -3.292279  0.026067
   scf:    7    -3528.570078    -3528.570040    -3528.570042  0.000166 -3.292473  0.008175
   scf:    8    -3528.570055    -3528.570049    -3528.570051  0.000090 -3.292522  0.001281
   scf:    9    -3528.570050    -3528.570049    -3528.570051  0.000016 -3.292539  0.001084
   scf:   10    -3528.570050    -3528.570050    -3528.570052  0.000032 -3.292559  0.000306
   scf:   11    -3528.570050    -3528.570050    -3528.570052  0.000005 -3.292551  0.000206

SCF Convergence by DM+H criterion
max |DM_out - DM_in|         :     0.0000053488
max |H_out - H_in|      (eV) :     0.0002055250
SCF cycle converged after 11 iterations

Using DM_out to compute the final energy and forces
No. of atoms with KB's overlaping orbs in proc 0. Max # of overlaps:      47     209

siesta: E_KS(eV) =            -3528.5701

siesta: Total spin polarization (Qup-Qdown) =   -0.000000

siesta: Atomic forces (eV/Ang):
----------------------------------------
   Tot   -0.002634   -0.012168   -0.000000
----------------------------------------
   Max    1.891383
   Res    0.392349    sqrt( Sum f_i^2 / 3N )
----------------------------------------
   Max    1.891383    constrained

Stress-tensor-Voigt (kbar):       -1.91       -1.84        0.00        0.25        0.00        0.00
(Free)E + p*V (eV/cell)    -3521.5796
Target enthalpy (eV/cell)    -3528.5701
 
mulliken: Atomic and Orbital Populations:

mulliken: Spin UP 

Species: H.mpn               
Atom  Qatom  Qorb
               1s      1s      1Ppy    1Ppz    1Ppx    
   1  0.617   0.415   0.151   0.022   0.017   0.012
   3  0.620   0.427   0.143   0.022   0.018   0.011
   9  0.619   0.418   0.149   0.017   0.017   0.018
  10  0.620   0.431   0.138   0.021   0.017   0.012
  23  0.622   0.429   0.141   0.021   0.018   0.012
  24  0.618   0.420   0.147   0.017   0.017   0.018
  28  0.620   0.427   0.143   0.022   0.018   0.011
  30  0.618   0.414   0.152   0.022   0.017   0.012

Species: C.mpn               
Atom  Qatom  Qorb
               2s      2s      2py     2pz     2px     2py     2pz     2px     
               2Pdxy   2Pdyz   2Pdz2   2Pdxz   2Pdx2-y2
   2  1.985   0.234   0.260   0.220   0.383   0.223   0.251   0.084   0.256
              0.020   0.015   0.001   0.017   0.022
   4  1.914   0.197   0.279   0.081   0.411   0.247   0.345   0.063   0.238
              0.014   0.004   0.001   0.015   0.021
   5  1.969   0.231   0.261   0.215   0.374   0.214   0.255   0.086   0.259
              0.021   0.014   0.001   0.017   0.022
   6  2.001   0.240   0.259   0.225   0.389   0.228   0.253   0.081   0.253
              0.020   0.015   0.001   0.015   0.022
   7  2.000   0.246   0.256   0.231   0.392   0.229   0.250   0.078   0.247
              0.021   0.014   0.002   0.014   0.021
   8  1.891   0.183   0.283   0.078   0.397   0.229   0.349   0.069   0.248
              0.016   0.004   0.001   0.015   0.019
  11  1.912   0.192   0.281   0.074   0.410   0.248   0.350   0.064   0.239
              0.015   0.004   0.001   0.015   0.020
  12  1.968   0.232   0.261   0.214   0.373   0.207   0.256   0.087   0.266
              0.021   0.014   0.001   0.017   0.021
  13  2.000   0.240   0.259   0.225   0.387   0.226   0.254   0.081   0.254
              0.021   0.014   0.001   0.015   0.021
  14  2.000   0.239   0.259   0.224   0.385   0.226   0.256   0.083   0.255
              0.021   0.014   0.001   0.015   0.021
  15  1.969   0.231   0.261   0.213   0.373   0.207   0.256   0.087   0.266
              0.021   0.014   0.001   0.017   0.021
  16  1.912   0.194   0.280   0.076   0.413   0.248   0.347   0.062   0.238
              0.015   0.004   0.001   0.015   0.019
  17  1.893   0.187   0.281   0.082   0.399   0.232   0.342   0.069   0.246
              0.015   0.004   0.001   0.015   0.019
  18  1.894   0.187   0.282   0.156   0.398   0.154   0.293   0.069   0.302
              0.022   0.010   0.001   0.010   0.013
  19  2.000   0.242   0.258   0.228   0.389   0.227   0.252   0.081   0.251
              0.021   0.014   0.002   0.015   0.021
  20  2.001   0.246   0.256   0.228   0.392   0.229   0.249   0.077   0.251
              0.021   0.014   0.002   0.015   0.022
  21  1.969   0.230   0.261   0.214   0.374   0.213   0.256   0.086   0.260
              0.021   0.015   0.001   0.017   0.021
  22  1.914   0.193   0.280   0.078   0.409   0.246   0.349   0.064   0.240
              0.014   0.004   0.001   0.015   0.020
  25  1.987   0.238   0.258   0.218   0.389   0.227   0.253   0.081   0.250
              0.021   0.014   0.001   0.016   0.021
  26  1.985   0.241   0.258   0.223   0.387   0.228   0.249   0.079   0.248
              0.020   0.015   0.001   0.016   0.022
  27  1.988   0.241   0.257   0.218   0.388   0.230   0.253   0.080   0.247
              0.020   0.014   0.001   0.015   0.022
  29  1.892   0.188   0.281   0.157   0.403   0.156   0.290   0.065   0.299
              0.022   0.009   0.001   0.009   0.013

mulliken: Qtot =       48.000

mulliken: Spin DOWN 

Species: H.mpn               
Atom  Qatom  Qorb
               1s      1s      1Ppy    1Ppz    1Ppx    
   1  0.617   0.415   0.151   0.022   0.017   0.012
   3  0.620   0.427   0.143   0.022   0.018   0.011
   9  0.619   0.418   0.149   0.017   0.017   0.018
  10  0.620   0.431   0.138   0.021   0.017   0.012
  23  0.622   0.429   0.141   0.021   0.018   0.012
  24  0.618   0.420   0.147   0.017   0.017   0.018
  28  0.620   0.427   0.143   0.022   0.018   0.011
  30  0.618   0.414   0.152   0.022   0.017   0.012

Species: C.mpn               
Atom  Qatom  Qorb
               2s      2s      2py     2pz     2px     2py     2pz     2px     
               2Pdxy   2Pdyz   2Pdz2   2Pdxz   2Pdx2-y2
   2  1.985   0.234   0.260   0.220   0.383   0.223   0.251   0.084   0.256
              0.020   0.015   0.001   0.017   0.022
   4  1.915   0.197   0.279   0.081   0.411   0.247   0.345   0.063   0.238
              0.014   0.004   0.001   0.015   0.021
   5  1.969   0.231   0.261   0.215   0.374   0.214   0.255   0.086   0.259
              0.021   0.014   0.001   0.017   0.022
   6  2.001   0.240   0.259   0.225   0.389   0.228   0.253   0.081   0.253
              0.020   0.015   0.001   0.015   0.022
   7  2.000   0.246   0.256   0.231   0.392   0.229   0.250   0.078   0.247
              0.021   0.014   0.002   0.014   0.021
   8  1.891   0.183   0.283   0.078   0.397   0.229   0.349   0.069   0.248
              0.016   0.004   0.001   0.015   0.019
  11  1.912   0.192   0.281   0.074   0.410   0.248   0.350   0.064   0.239
              0.015   0.004   0.001   0.015   0.020
  12  1.968   0.232   0.261   0.214   0.373   0.207   0.256   0.087   0.266
              0.021   0.014   0.001   0.017   0.021
  13  2.000   0.240   0.259   0.225   0.387   0.226   0.254   0.081   0.254
              0.021   0.014   0.001   0.015   0.021
  14  2.000   0.239   0.259   0.224   0.385   0.226   0.256   0.083   0.255
              0.021   0.014   0.001   0.015   0.021
  15  1.969   0.231   0.261   0.213   0.373   0.207   0.256   0.087   0.266
              0.021   0.014   0.001   0.017   0.021
  16  1.911   0.194   0.280   0.076   0.413   0.248   0.347   0.062   0.238
              0.015   0.004   0.001   0.015   0.019
  17  1.893   0.187   0.281   0.082   0.399   0.232   0.342   0.069   0.246
              0.015   0.004   0.001   0.015   0.019
  18  1.894   0.187   0.282   0.156   0.398   0.154   0.293   0.069   0.302
              0.022   0.010   0.001   0.010   0.013
  19  2.000   0.242   0.258   0.228   0.389   0.227   0.252   0.081   0.251
              0.021   0.014   0.002   0.015   0.021
  20  2.001   0.246   0.256   0.228   0.392   0.229   0.249   0.077   0.251
              0.021   0.014   0.002   0.015   0.022
  21  1.969   0.230   0.261   0.214   0.374   0.213   0.256   0.086   0.260
              0.021   0.015   0.001   0.017   0.021
  22  1.914   0.193   0.280   0.078   0.409   0.246   0.349   0.064   0.240
              0.014   0.004   0.001   0.015   0.020
  25  1.987   0.238   0.258   0.218   0.389   0.227   0.253   0.081   0.250
              0.021   0.014   0.001   0.016   0.021
  26  1.985   0.241   0.258   0.223   0.387   0.228   0.249   0.079   0.248
              0.020   0.015   0.001   0.016   0.022
  27  1.988   0.241   0.257   0.218   0.388   0.230   0.253   0.080   0.247
              0.020   0.014   0.001   0.015   0.022
  29  1.892   0.188   0.281   0.157   0.403   0.156   0.290   0.065   0.299
              0.022   0.009   0.001   0.009   0.013

mulliken: Qtot =       48.000

                     ====================================
                        Begin CG opt. move =      4
                     ====================================

superc: Internal auxiliary supercell:     3 x     1 x     1  =       3
superc: Number of atoms, orbitals, and projectors:     90    978   1272

outcell: Unit cell vectors (Ang):
        8.970000    0.000000    0.000000
        0.000000   50.000000    0.000000
        0.000000    0.000000   20.000000

outcell: Cell vector modules (Ang)   :    8.970000   50.000000   20.000000
outcell: Cell angles (23,13,12) (deg):     90.0000     90.0000     90.0000
outcell: Cell volume (Ang**3)        :   8970.0000
<dSpData1D:S at geom step 4
  <sparsity:sparsity for geom step 4
    nrows_g=326 nrows=48 sparsity=.1874 nnzs=19916, refcount: 7>
  <dData1D:(new from dSpData1D) n=19916, refcount: 1>
refcount: 1>
new_DM -- step:     5
Re-using DM from previous geometries...
Number of DMs in history: 1
 DM extrapolation coefficients: 
1   1.00000
New DM after history re-use:
<dSpData2D:SpM extrapolated using coords
  <sparsity:sparsity for geom step 4
    nrows_g=326 nrows=48 sparsity=.1874 nnzs=19916, refcount: 8>
  <dData2D:(temp array for extrapolation) n=19916 m=2, refcount: 1>
refcount: 1>
No. of atoms with KB's overlaping orbs in proc 0. Max # of overlaps:      47     209
New grid distribution:   1
           1       1:   54    1:  107    1:   32
           2       1:   54    1:  107   33:   63
           3       1:   54    1:  107   64:   94
           4       1:   54    1:  107   95:  125
           5       1:   54  108:  214    1:   32
           6       1:   54  108:  214   33:   63
           7       1:   54  108:  214   64:   94
           8       1:   54  108:  214   95:  125
           9       1:   54  215:  320    1:   32
          10       1:   54  215:  320   33:   63
          11       1:   54  215:  320   64:   94
          12       1:   54  215:  320   95:  125

InitMesh: MESH =   108 x   640 x   250 =    17280000
InitMesh: (bp) =    54 x   320 x   125 =     2160000
InitMesh: Mesh cutoff (required, used) =   400.000   400.649 Ry
ExtMesh (bp) on 0 =   118 x   175 x   100 =     2065000
New grid distribution:   2
           1       1:   54    1:   45    1:   60
           2       1:   54   46:   50   61:  125
           3       1:   54    1:   39   61:  125
           4       1:   54   66:   71   61:  125
           5       1:   54   56:   65    1:   60
           6       1:   54   40:   45   61:  125
           7       1:   54   72:  320   61:  125
           8       1:   54   56:   60   61:  125
           9       1:   54   66:  320    1:   60
          10       1:   54   46:   55    1:   60
          11       1:   54   51:   55   61:  125
          12       1:   54   61:   65   61:  125
New grid distribution:   3
           1       1:   54    1:   38    1:   58
           2       1:   54   39:   47   59:  125
           3       1:   54    1:   28   59:  125
           4       1:   54   75:   84   59:  125
           5       1:   54   57:   74    1:   58
           6       1:   54   29:   38   59:  125
           7       1:   54   85:  320   59:  125
           8       1:   54   57:   65   59:  125
           9       1:   54   75:  320    1:   58
          10       1:   54   39:   56    1:   58
          11       1:   54   48:   56   59:  125
          12       1:   54   66:   74   59:  125
Setting up quadratic distribution...
ExtMesh (bp) on 0 =   118 x   113 x   128 =     1706752
PhiOnMesh: Number of (b)points on node 0 =               145800
PhiOnMesh: nlist on node 0 =               497111

        iscf     Eharris(eV)        E_KS(eV)     FreeEng(eV)     dDmax    Ef(eV) dHmax(eV)
   scf:    1    -3528.292611    -3528.542038    -3528.542040  0.007253 -3.290764  0.807296
   scf:    2    -3526.931137    -3528.077336    -3528.077337  0.014979 -3.274759  2.394115
   scf:    3    -3528.716826    -3528.594958    -3528.594959  0.011580 -3.287358  0.065068
   scf:    4    -3528.595514    -3528.595290    -3528.595292  0.000251 -3.287388  0.038470
   scf:    5    -3528.595422    -3528.595372    -3528.595374  0.000205 -3.287321  0.017999
   scf:    6    -3528.595404    -3528.595391    -3528.595392  0.000095 -3.287146  0.004843
   scf:    7    -3528.595394    -3528.595393    -3528.595394  0.000030 -3.287130  0.002985
   scf:    8    -3528.595394    -3528.595394    -3528.595395  0.000029 -3.287117  0.000469
   scf:    9    -3528.595394    -3528.595394    -3528.595396  0.000015 -3.287106  0.000167
[...]
        116.52 118.40 124.00 128.60 129.47 130.70 134.61 135.81 141.81 142.82
        148.14 153.96 157.15 164.27 166.15 167.43
  49  1 -21.61 -21.48 -20.36 -20.21 -19.02 -18.87 -18.53 -18.47 -17.73 -17.33
        -16.86 -15.53 -14.79 -14.65 -14.49 -13.55 -13.52 -13.33 -12.65 -12.40
        -12.08 -11.34 -11.11 -10.93 -10.29 -10.15  -9.65  -9.53  -9.49  -9.39
         -9.37  -9.25  -9.20  -8.92  -8.56  -8.30  -8.11  -7.95  -7.67  -7.33
         -7.25  -6.73  -6.57  -6.49  -6.19  -5.61  -4.88  -4.57  -1.93  -1.57
         -0.93  -0.15  -0.04   0.37   0.59   2.38   2.64   2.75   2.77   3.09
          3.11   4.08   4.24   4.63   4.77   5.43   5.53   5.66   5.68   5.76
          6.09   6.30   6.63   6.67   7.03   7.46   8.15   8.63   8.68   8.90
          9.32   9.44   9.57   9.64   9.83  10.01  10.21  10.34  10.54  10.62
         11.00  11.10  11.12  11.45  11.51  11.61  11.97  12.06  12.07  12.31
         12.34  12.39  12.70  12.90  13.09  13.09  13.14  13.22  13.57  13.59
         13.62  13.67  13.82  14.11  14.22  14.26  14.29  14.39  14.72  14.82
         14.87  15.29  15.61  16.14  16.48  16.78  17.07  17.21  17.86  18.22
         18.38  18.51  18.87  18.94  19.28  19.48  19.48  19.61  19.68  19.88
         20.09  20.17  20.29  20.55  20.87  21.05  21.08  21.30  21.48  21.55
         21.83  21.86  21.90  22.27  22.41  22.47  22.48  22.48  22.74  22.90
         23.42  23.68  24.05  24.28  24.36  24.46  24.50  24.54  24.91  25.02
         25.65  26.19  26.24  26.62  27.20  27.81  28.69  28.85  30.02  30.63
         31.30  31.94  32.18  32.68  32.93  33.04  33.37  33.49  33.56  34.08
         34.20  34.61  34.83  35.32  35.83  35.93  36.28  36.55  37.11  37.52
         38.43  38.51  38.93  39.02  39.60  40.72  40.85  40.90  41.50  42.31
         43.25  43.79  44.08  44.33  44.71  45.03  45.89  46.08  46.26  47.50
         47.97  48.82  48.85  48.87  49.21  49.47  49.66  50.90  51.59  51.69
         52.17  52.46  52.50  53.28  53.34  53.37  54.13  54.27  54.46  55.30
         55.47  55.65  55.91  56.49  56.68  57.35  57.69  57.88  58.16  59.47
         59.90  60.04  60.45  60.48  61.35  61.56  61.74  62.13  62.21  62.28
         63.19  63.49  64.25  65.05  65.61  66.06  66.18  67.55  69.57  70.65
         71.68  71.78  72.04  72.89  73.40  74.91  75.05  75.88  76.58  77.42
         78.37  79.66  79.77  80.10  80.30  80.49  80.78  81.15  82.79  83.20
         84.06  84.98  85.03  86.70  87.27  90.01  93.20  94.27  95.26  95.86
         96.70  97.64 100.81 101.27 102.35 104.51 107.52 108.26 111.26 112.86
        116.52 118.41 124.03 128.58 129.51 130.76 134.73 135.63 141.95 142.89
        148.02 153.95 157.16 164.48 166.04 167.25
  49  2 -21.61 -21.48 -20.36 -20.21 -19.02 -18.87 -18.53 -18.47 -17.73 -17.33
        -16.86 -15.53 -14.79 -14.65 -14.49 -13.55 -13.52 -13.33 -12.65 -12.40
        -12.08 -11.34 -11.11 -10.93 -10.29 -10.15  -9.65  -9.53  -9.49  -9.39
         -9.37  -9.25  -9.20  -8.92  -8.56  -8.30  -8.11  -7.95  -7.67  -7.33
         -7.25  -6.73  -6.57  -6.49  -6.19  -5.61  -4.88  -4.57  -1.93  -1.57
         -0.93  -0.15  -0.04   0.37   0.59   2.38   2.64   2.75   2.77   3.09
          3.11   4.08   4.24   4.63   4.77   5.43   5.53   5.66   5.68   5.76
          6.09   6.30   6.63   6.67   7.03   7.46   8.15   8.63   8.68   8.90
          9.32   9.44   9.57   9.64   9.83  10.01  10.21  10.34  10.54  10.62
         11.00  11.10  11.12  11.45  11.51  11.61  11.97  12.06  12.07  12.31
         12.34  12.39  12.70  12.90  13.09  13.09  13.14  13.22  13.57  13.59
         13.62  13.67  13.82  14.11  14.22  14.26  14.29  14.39  14.72  14.82
         14.87  15.29  15.61  16.14  16.48  16.78  17.07  17.21  17.86  18.22
         18.38  18.51  18.87  18.94  19.28  19.48  19.48  19.61  19.68  19.88
         20.09  20.17  20.29  20.55  20.87  21.05  21.08  21.30  21.48  21.55
         21.83  21.86  21.90  22.27  22.41  22.47  22.48  22.48  22.74  22.90
         23.42  23.68  24.05  24.28  24.36  24.46  24.50  24.54  24.91  25.02
         25.65  26.19  26.24  26.62  27.20  27.81  28.69  28.85  30.02  30.63
         31.30  31.94  32.18  32.68  32.93  33.04  33.37  33.49  33.56  34.08
         34.20  34.61  34.83  35.32  35.83  35.93  36.28  36.55  37.11  37.52
         38.43  38.51  38.93  39.02  39.60  40.72  40.85  40.90  41.50  42.31
         43.25  43.79  44.08  44.33  44.71  45.03  45.89  46.08  46.26  47.50
         47.97  48.82  48.85  48.87  49.21  49.47  49.66  50.90  51.59  51.69
         52.17  52.46  52.50  53.28  53.34  53.37  54.13  54.27  54.46  55.30
         55.47  55.65  55.91  56.49  56.68  57.35  57.69  57.88  58.16  59.47
         59.90  60.04  60.45  60.48  61.35  61.56  61.74  62.13  62.21  62.28
         63.19  63.49  64.25  65.05  65.61  66.06  66.18  67.55  69.57  70.65
         71.68  71.78  72.04  72.89  73.40  74.91  75.05  75.88  76.58  77.42
         78.37  79.66  79.77  80.10  80.30  80.49  80.78  81.15  82.79  83.20
         84.06  84.98  85.03  86.70  87.27  90.01  93.20  94.27  95.26  95.86
         96.70  97.64 100.81 101.27 102.35 104.51 107.52 108.26 111.26 112.86
        116.52 118.41 124.03 128.58 129.51 130.76 134.73 135.63 141.95 142.89
        148.02 153.95 157.16 164.48 166.04 167.25
  50  1 -21.61 -21.49 -20.36 -20.21 -18.99 -18.91 -18.52 -18.48 -17.73 -17.33
        -16.86 -15.53 -14.79 -14.63 -14.50 -13.55 -13.49 -13.37 -12.64 -12.41
        -12.08 -11.34 -11.11 -10.93 -10.27 -10.17  -9.65  -9.54  -9.49  -9.39
         -9.37  -9.25  -9.19  -8.92  -8.56  -8.30  -8.12  -7.94  -7.68  -7.31
         -7.27  -6.69  -6.61  -6.49  -6.19  -5.61  -4.88  -4.57  -1.92  -1.57
         -0.94  -0.14  -0.05   0.42   0.54   2.38   2.66   2.75   2.76   3.09
          3.11   4.08   4.24   4.63   4.77   5.43   5.56   5.65   5.66   5.76
          6.08   6.30   6.63   6.67   7.04   7.45   8.15   8.63   8.71   8.88
          9.32   9.45   9.57   9.63   9.86   9.98  10.22  10.33  10.54  10.61
         11.02  11.10  11.11  11.49  11.51  11.57  11.97  12.05  12.07  12.32
         12.33  12.39  12.71  12.90  13.09  13.09  13.14  13.23  13.58  13.59
         13.62  13.66  13.83  14.10  14.23  14.25  14.29  14.39  14.72  14.82
         14.87  15.29  15.61  16.14  16.48  16.78  17.07  17.21  17.86  18.22
         18.39  18.50  18.87  18.94  19.28  19.48  19.48  19.61  19.68  19.88
         20.10  20.19  20.27  20.55  20.87  21.05  21.08  21.29  21.47  21.55
         21.85  21.86  21.88  22.28  22.42  22.46  22.46  22.48  22.74  22.90
         23.42  23.68  24.05  24.28  24.38  24.47  24.50  24.53  24.91  25.02
         25.65  26.20  26.23  26.62  27.20  27.82  28.72  28.81  30.02  30.63
         31.30  31.94  32.19  32.68  32.94  33.04  33.38  33.48  33.56  34.08
         34.19  34.66  34.78  35.33  35.83  35.94  36.28  36.54  37.11  37.52
         38.43  38.51  38.93  39.02  39.61  40.74  40.83  40.90  41.50  42.31
         43.26  43.80  44.07  44.33  44.73  45.03  45.87  46.12  46.22  47.51
         47.98  48.82  48.86  48.87  49.21  49.46  49.64  50.91  51.59  51.69
         52.18  52.46  52.48  53.29  53.36  53.37  54.13  54.28  54.42  55.32
         55.47  55.70  55.84  56.53  56.64  57.37  57.67  57.88  58.14  59.48
         59.93  60.02  60.46  60.48  61.36  61.56  61.72  62.11  62.22  62.27
         63.21  63.48  64.25  65.05  65.62  66.07  66.18  67.55  69.57  70.65
         71.69  71.77  72.03  72.88  73.43  74.87  75.06  75.90  76.58  77.41
         78.37  79.69  79.76  80.11  80.35  80.45  80.82  81.12  82.80  83.19
         84.05  84.99  85.02  86.72  87.23  90.05  93.19  94.27  95.25  95.89
         96.67  97.64 100.89 101.19 102.30 104.51 107.52 108.25 111.25 112.87
        116.52 118.41 124.04 128.56 129.54 130.80 134.84 135.49 142.03 142.94
        147.94 153.95 157.16 164.65 165.93 167.15
  50  2 -21.61 -21.49 -20.36 -20.21 -18.99 -18.91 -18.52 -18.48 -17.73 -17.33
        -16.86 -15.53 -14.79 -14.63 -14.50 -13.55 -13.49 -13.37 -12.64 -12.41
        -12.08 -11.34 -11.11 -10.93 -10.27 -10.17  -9.65  -9.54  -9.49  -9.39
         -9.37  -9.25  -9.19  -8.92  -8.56  -8.30  -8.12  -7.94  -7.68  -7.31
         -7.27  -6.69  -6.61  -6.49  -6.19  -5.61  -4.88  -4.57  -1.92  -1.57
         -0.94  -0.14  -0.05   0.42   0.54   2.38   2.66   2.75   2.76   3.09
          3.11   4.08   4.24   4.63   4.77   5.43   5.56   5.65   5.66   5.76
          6.08   6.30   6.63   6.67   7.04   7.45   8.15   8.63   8.71   8.88
          9.32   9.45   9.57   9.63   9.86   9.98  10.22  10.33  10.54  10.61
         11.02  11.10  11.11  11.49  11.51  11.57  11.97  12.05  12.07  12.32
         12.33  12.39  12.71  12.90  13.09  13.09  13.14  13.23  13.58  13.59
         13.62  13.66  13.83  14.10  14.23  14.25  14.29  14.39  14.72  14.82
         14.87  15.29  15.61  16.14  16.48  16.78  17.07  17.21  17.86  18.22
         18.39  18.50  18.87  18.94  19.28  19.48  19.48  19.61  19.68  19.88
         20.10  20.19  20.27  20.55  20.87  21.05  21.08  21.29  21.47  21.55
         21.85  21.86  21.88  22.28  22.42  22.46  22.46  22.48  22.74  22.90
         23.42  23.68  24.05  24.28  24.38  24.47  24.50  24.53  24.91  25.02
         25.65  26.20  26.23  26.62  27.20  27.82  28.72  28.81  30.02  30.63
         31.30  31.94  32.19  32.68  32.94  33.04  33.38  33.48  33.56  34.08
         34.19  34.66  34.78  35.33  35.83  35.94  36.28  36.54  37.11  37.52
         38.43  38.51  38.93  39.02  39.61  40.74  40.83  40.90  41.50  42.31
         43.26  43.80  44.07  44.33  44.73  45.03  45.87  46.12  46.22  47.51
         47.98  48.82  48.86  48.87  49.21  49.46  49.64  50.91  51.59  51.69
         52.18  52.46  52.48  53.29  53.36  53.37  54.13  54.28  54.42  55.32
         55.47  55.70  55.84  56.53  56.64  57.37  57.67  57.88  58.14  59.48
         59.93  60.02  60.46  60.48  61.36  61.56  61.72  62.11  62.22  62.27
         63.21  63.48  64.25  65.05  65.62  66.07  66.18  67.55  69.57  70.65
         71.69  71.77  72.03  72.88  73.43  74.87  75.06  75.90  76.58  77.41
         78.37  79.69  79.76  80.11  80.35  80.45  80.82  81.12  82.80  83.19
         84.05  84.99  85.02  86.72  87.23  90.05  93.19  94.27  95.25  95.89
         96.67  97.64 100.89 101.19 102.30 104.51 107.52 108.25 111.25 112.87
        116.52 118.41 124.04 128.56 129.54 130.80 134.84 135.49 142.03 142.94
        147.94 153.95 157.16 164.65 165.93 167.15
  51  1 -21.61 -21.49 -20.36 -20.21 -18.96 -18.93 -18.51 -18.49 -17.73 -17.34
        -16.86 -15.53 -14.79 -14.63 -14.51 -13.55 -13.48 -13.38 -12.64 -12.41
        -12.08 -11.34 -11.11 -10.93 -10.26 -10.18  -9.65  -9.54  -9.49  -9.39
         -9.37  -9.25  -9.19  -8.92  -8.56  -8.30  -8.12  -7.94  -7.69  -7.30
         -7.27  -6.67  -6.64  -6.49  -6.19  -5.61  -4.88  -4.58  -1.92  -1.57
         -0.94  -0.13  -0.05   0.46   0.50   2.38   2.66   2.75   2.76   3.09
          3.10   4.08   4.24   4.64   4.76   5.43   5.57   5.64   5.66   5.76
          6.08   6.30   6.63   6.67   7.04   7.45   8.16   8.63   8.72   8.87
          9.32   9.46   9.57   9.62   9.87   9.97  10.23  10.32  10.54  10.61
         11.02  11.10  11.10  11.51  11.51  11.55  11.97  12.05  12.07  12.32
         12.32  12.39  12.71  12.90  13.09  13.09  13.14  13.23  13.58  13.59
         13.62  13.66  13.83  14.10  14.23  14.25  14.29  14.39  14.72  14.82
         14.87  15.28  15.61  16.14  16.47  16.78  17.07  17.21  17.86  18.22
         18.39  18.50  18.87  18.94  19.28  19.48  19.48  19.61  19.68  19.88
         20.10  20.20  20.26  20.54  20.87  21.05  21.09  21.29  21.47  21.55
         21.86  21.87  21.87  22.28  22.44  22.44  22.46  22.48  22.74  22.90
         23.42  23.68  24.05  24.28  24.39  24.47  24.50  24.52  24.90  25.01
         25.65  26.21  26.22  26.62  27.20  27.82  28.74  28.79  30.03  30.63
         31.30  31.94  32.19  32.68  32.95  33.04  33.38  33.48  33.56  34.08
         34.18  34.69  34.74  35.33  35.83  35.94  36.28  36.54  37.11  37.52
         38.43  38.51  38.93  39.02  39.61  40.75  40.82  40.89  41.50  42.32
         43.26  43.80  44.06  44.34  44.73  45.03  45.87  46.14  46.20  47.51
         47.98  48.82  48.86  48.87  49.21  49.46  49.63  50.92  51.59  51.69
         52.19  52.46  52.47  53.29  53.37  53.37  54.13  54.28  54.41  55.33
         55.46  55.75  55.78  56.56  56.61  57.38  57.67  57.88  58.14  59.49
         59.94  60.01  60.47  60.48  61.36  61.57  61.72  62.11  62.23  62.26
         63.21  63.47  64.25  65.05  65.62  66.07  66.18  67.55  69.57  70.65
         71.69  71.77  72.03  72.87  73.44  74.86  75.06  75.91  76.58  77.41
         78.36  79.70  79.76  80.12  80.40  80.40  80.84  81.11  82.80  83.19
         84.04  85.00  85.00  86.72  87.22  90.07  93.19  94.26  95.25  95.90
         96.65  97.64 100.93 101.16 102.29 104.51 107.52 108.25 111.25 112.87
        116.53 118.41 124.05 128.55 129.55 130.81 134.89 135.42 142.05 142.96
        147.91 153.94 157.17 164.72 165.88 167.12
  51  2 -21.61 -21.49 -20.36 -20.21 -18.96 -18.93 -18.51 -18.49 -17.73 -17.34
        -16.86 -15.53 -14.79 -14.63 -14.51 -13.55 -13.48 -13.38 -12.64 -12.41
        -12.08 -11.34 -11.11 -10.93 -10.26 -10.18  -9.65  -9.54  -9.49  -9.39
         -9.37  -9.25  -9.19  -8.92  -8.56  -8.30  -8.12  -7.94  -7.69  -7.30
         -7.27  -6.67  -6.64  -6.49  -6.19  -5.61  -4.88  -4.58  -1.92  -1.57
         -0.94  -0.13  -0.05   0.46   0.50   2.38   2.66   2.75   2.76   3.09
          3.10   4.08   4.24   4.64   4.76   5.43   5.57   5.64   5.66   5.76
          6.08   6.30   6.63   6.67   7.04   7.45   8.16   8.63   8.72   8.87
          9.32   9.46   9.57   9.62   9.87   9.97  10.23  10.32  10.54  10.61
         11.02  11.10  11.10  11.51  11.51  11.55  11.97  12.05  12.07  12.32
         12.32  12.39  12.71  12.90  13.09  13.09  13.14  13.23  13.58  13.59
         13.62  13.66  13.83  14.10  14.23  14.25  14.29  14.39  14.72  14.82
         14.87  15.28  15.61  16.14  16.47  16.78  17.07  17.21  17.86  18.22
         18.39  18.50  18.87  18.94  19.28  19.48  19.48  19.61  19.68  19.88
         20.10  20.20  20.26  20.54  20.87  21.05  21.09  21.29  21.47  21.55
         21.86  21.87  21.87  22.28  22.44  22.44  22.46  22.48  22.74  22.90
         23.42  23.68  24.05  24.28  24.39  24.47  24.50  24.52  24.90  25.01
         25.65  26.21  26.22  26.62  27.20  27.82  28.74  28.79  30.03  30.63
         31.30  31.94  32.19  32.68  32.95  33.04  33.38  33.48  33.56  34.08
         34.18  34.69  34.74  35.33  35.83  35.94  36.28  36.54  37.11  37.52
         38.43  38.51  38.93  39.02  39.61  40.75  40.82  40.89  41.50  42.32
         43.26  43.80  44.06  44.34  44.73  45.03  45.87  46.14  46.20  47.51
         47.98  48.82  48.86  48.87  49.21  49.46  49.63  50.92  51.59  51.69
         52.19  52.46  52.47  53.29  53.37  53.37  54.13  54.28  54.41  55.33
         55.46  55.75  55.78  56.56  56.61  57.38  57.67  57.88  58.14  59.49
         59.94  60.01  60.47  60.48  61.36  61.57  61.72  62.11  62.23  62.26
         63.21  63.47  64.25  65.05  65.62  66.07  66.18  67.55  69.57  70.65
         71.69  71.77  72.03  72.87  73.44  74.86  75.06  75.91  76.58  77.41
         78.36  79.70  79.76  80.12  80.40  80.40  80.84  81.11  82.80  83.19
         84.04  85.00  85.00  86.72  87.22  90.07  93.19  94.26  95.25  95.90
         96.65  97.64 100.93 101.16 102.29 104.51 107.52 108.25 111.25 112.87
        116.53 118.41 124.05 128.55 129.55 130.81 134.89 135.42 142.05 142.96
        147.91 153.94 157.17 164.72 165.88 167.12
siesta: Fermi energy =      -3.273046 eV

siesta: Program's energy decomposition (eV):
siesta: Ebs     =     -1143.729461
siesta: Eions   =      4591.796754
siesta: Ena     =       471.858812
siesta: Ekin    =      2573.308518
siesta: Enl     =      -808.406539
siesta: Eso     =         0.000000
siesta: Eldau   =         0.000000
siesta: DEna    =       -59.568083
siesta: DUscf   =         6.422892
siesta: DUext   =         0.000000
siesta: Enegf   =         0.000000
siesta: Exc     =     -1120.518279
siesta: eta*DQ  =         0.000000
siesta: Emadel  =         0.000000
siesta: Emeta   =         0.000000
siesta: Emolmec =         0.000000
siesta: Ekinion =         0.000000
siesta: Eharris =     -3528.699433
siesta: Etot    =     -3528.699433
siesta: FreeEng =     -3528.699436

siesta: Final energy (eV):
siesta:  Band Struct. =   -1143.729461
siesta:       Kinetic =    2573.308518
siesta:       Hartree =   26102.133381
siesta:       Eldau   =       0.000000
siesta:       Eso     =       0.000000
siesta:    Ext. field =       0.000000
siesta:       Enegf   =       0.000000
siesta:   Exch.-corr. =   -1120.518279
siesta:  Ion-electron =  -54463.946951
siesta:       Ion-ion =   23380.323897
siesta:       Ekinion =       0.000000
siesta:         Total =   -3528.699433
siesta:         Fermi =      -3.273046

siesta: Stress tensor (static) (eV/Ang**3):
siesta:    -0.000653    0.000001    0.000000
siesta:     0.000001    0.000003   -0.000000
siesta:     0.000000   -0.000000    0.000002

siesta: Cell volume =       8970.000000 Ang**3

siesta: Pressure (static):
siesta:                Solid            Molecule  Units
siesta:           0.00000235          0.00000235  Ry/Bohr**3
siesta:           0.00021582          0.00021538  eV/Ang**3
siesta:           0.34579109          0.34507756  kBar
(Free)E+ p_basis*V_orbitals  =       -3520.617565
(Free)Eharris+ p_basis*V_orbitals  =       -3520.617565

siesta: Total spin polarization (Qup-Qdown) =   -0.000000

siesta: Electric dipole (a.u.)  =   -0.000000   -0.000026   -0.000000
siesta: Electric dipole (Debye) =   -0.000000   -0.000067   -0.000000

Hirshfeld Net Atomic Populations:
Atom #    Qatom  Species
     1    0.020  H.mpn               
     2    0.004  C.mpn               
     3    0.022  H.mpn               
     4   -0.032  C.mpn               
     5    0.006  C.mpn               
     6    0.001  C.mpn               
     7    0.003  C.mpn               
     8   -0.027  C.mpn               
     9    0.023  H.mpn               
    10    0.025  H.mpn               
    11   -0.031  C.mpn               
    12    0.007  C.mpn               
    13    0.002  C.mpn               
    14    0.002  C.mpn               
    15    0.007  C.mpn               
    16   -0.031  C.mpn               
    17   -0.027  C.mpn               
    18   -0.028  C.mpn               
    19    0.003  C.mpn               
    20    0.001  C.mpn               
    21    0.006  C.mpn               
    22   -0.032  C.mpn               
    23    0.025  H.mpn               
    24    0.023  H.mpn               
    25    0.005  C.mpn               
    26    0.004  C.mpn               
    27    0.005  C.mpn               
    28    0.022  H.mpn               
    29   -0.028  C.mpn               
    30    0.020  H.mpn               

Voronoi Net Atomic Populations:
Atom #    Qatom  Species
     1    0.001  H.mpn               
     2    0.004  C.mpn               
     3   -0.001  H.mpn               
     4   -0.010  C.mpn               
     5    0.004  C.mpn               
     6   -0.003  C.mpn               
     7    0.004  C.mpn               
     8   -0.002  C.mpn               
     9    0.002  H.mpn               
    10    0.001  H.mpn               
    11   -0.009  C.mpn               
    12    0.008  C.mpn               
    13    0.002  C.mpn               
    14    0.002  C.mpn               
    15    0.008  C.mpn               
    16   -0.009  C.mpn               
    17   -0.002  C.mpn               
    18   -0.005  C.mpn               
    19    0.005  C.mpn               
    20   -0.003  C.mpn               
    21    0.004  C.mpn               
    22   -0.010  C.mpn               
    23    0.001  H.mpn               
    24    0.002  H.mpn               
    25    0.003  C.mpn               
    26    0.003  C.mpn               
    27    0.003  C.mpn               
    28   -0.002  H.mpn               
    29   -0.005  C.mpn               
    30    0.001  H.mpn               
>> End of run:  19-APR-2018   0:44:02
Job completed
Job completed
