Siesta Version  : siesta-4.1--852
Architecture    : unknown
Compiler version: ifort (IFORT) 17.0.4 20170411
Compiler flags  : mpiifort -O1 -xHost -mp1 -fpp -ftz -I/scicomp/easybuild/CentOS/7.3.1611/Hasweell/software/imkl/2017.3.196-iimpi-2017b/mkl/include -I/scratch/scicomp/easybuild/CentOS/7.3.1611/Haswell/software/netCDF-Fortran/4.4.4-intel-2017b/include -I/scratch/scicomp/easybuild/CentOS/7.3.1611/Haswell/software/netCDF/4.4.1.1-intel-2017b/include
PP flags        :  -DFC_HAVE_ABORT -DMPI -DCDF -DNCDF -DNCDF_4 -DGRID_DP -DNCDF_PARALLEL
Libraries       : libncdf.a libfdict.a -L/scratch/scicomp/easybuild/CentOS/7.3.1611/Haswell/sofftware/netCDF-Fortran/4.4.4-intel-2017b/lib -lnetcdff -L/scratch/scicomp/easybuild/CentOS/7.3.1611/Haswell/software/cURL/7.56.0-GCCcore-6.4.0/lib -lcurl -L/scratch/scicomp/easybuild/CentOS/7.3.1611/Haswell/software/netCDF/4.4.1.1-intel-2017b/lib64 -lnetcdf -L/scratch/scicomp/easybuild/CentOS/7.3.1611/Haswell/software/HDF5/1.10.1-intel-2017b/lib -lhdf5hl_fortran -lhdf5_fortran -lhdf5_hl -lhdf5 -L/scratch/scicomp/easybuild/CentOS/7.3.1611/Haswell/software/Szip/2.1.1-GCCcore-6.4.0/lib -lsz -L/scratch/scicomp/easybuild/CentOS/7.3.1611/Haswell/software/zlib/1.2.11-GCCcore-6.4.0/lib -lz /scicomp/easybuild/CentOS/7.3.1611/Haswell/software/imkl/2017.3.196-iimpi-2017b/mkl/lib/intel64/libmkl_scalapack_lp64.a -Wl,--start-group /scicomp/easybuild/CentOS/7.3.1611/Haswell/software/imkl/2017.3.196-iimpi-2017b/mkl/lib/intel64/libmkl_intel_lp64.a /scicomp/easybuild/CentOS/7.3.1611/Haswell/software/imkl/2017.3.196-iimpi-2017b/mkl/lib/intel64/libmkl_sequential.a /scicomp/easybuild/CentOS/7.3.1611/Haswell/software/imkl/2017.3.196-iimpi-2017b/mkl/lib/intel64/libmkl_core.a /scicomp/easybuild/CentOS/7.3.1611/Haswell/software/imkl/2017.3.196-iimpi-2017b/mkl/lib/intel64/libmkl_blacs_intelmpi_lp64.a -Wl,--end-group -lpthread -lm -ldl
PARALLEL version
NetCDF support
NetCDF-4 support
NetCDF-4 MPI-IO support

* Running on 24 nodes in parallel
>> Start of run:  16-APR-2018  21:54:05

                           ***********************       
                           *  WELCOME TO SIESTA  *       
                           ***********************       

reinit: Reading from standard input
reinit: Dumped input in INPUT_TMP.78192
************************** Dump of input data file ****************************
SystemTitle molecule
SystemLabel molecule
SolutionMethod     diagon
TS.HS.Save         true
MD.TypeOfRun  CG
MD.TypeOfRun  Broyden
MD.Broyden.Cycle.On.Maxit F
MD.NumCGsteps  1000
MD.MaxForceTol 0.002 eV/Ang
Diag.ParallelOverK true
%block kgrid_Monkhorst_Pack
 100    0    0    0.0
  0    1    0    0.0
  0    0    1    0.0
%endblock kgrid_Monkhorst_Pack
MaxSCFIterations      3000
SCFMustConverge       true
DM.Tolerance          1.d-5
DM.UseSaveDM          true
DM.NumberPulay	      7
DM.MixingWeight       0.1
MD.UseSaveXV          true
XC.functional         GGA
XC.authors     	      PBE
MeshCutoff            400. Ry
PAO.BasisSize   DZP
PAO.BasisType   split
%block ChemicalSpeciesLabel
    1   1 H.mpn
    2   6 C.mpn
%endblock ChemicalSpeciesLabel
%include STRUCT.fdf
SpinPolarized   true
#FixSpin  true
#Spin.Fix true
#Spin.Total 0
#TotalSpin  0
%block DM.InitSpin
41   1.
10  -1.
%endblock DM.InitSpin
WriteMullikenPop 1
WriteHirshfeldPop true
WriteVoronoiPop true
WriteEigenvalues true
WriteWaveFunctions true
************************** End of input data file *****************************

reinit: -----------------------------------------------------------------------
reinit: System Name: 
reinit: -----------------------------------------------------------------------
reinit: System Label: molecule
reinit: -----------------------------------------------------------------------

initatom: Reading input for the pseudopotentials and atomic orbitals ----------
Species number:   1 Atomic number:    1 Label: H.mpn
Species number:   2 Atomic number:    6 Label: C.mpn
 
Ground state valence configuration:   1s01
Reading pseudopotential information in unformatted form from H.mpn.vps

Pseudopotential generated from a relativistic atomic calculation

Valence configuration for pseudopotential generation:
1s( 1.00) rc: 1.25
2p( 0.00) rc: 1.25
3d( 0.00) rc: 1.25
4f( 0.00) rc: 1.19
Ground state valence configuration:   2s02  2p02
Reading pseudopotential information in unformatted form from C.mpn.vps

Pseudopotential generated from a relativistic atomic calculation

Valence configuration for pseudopotential generation:
2s( 2.00) rc: 1.25
2p( 2.00) rc: 1.25
3d( 0.00) rc: 1.98
4f( 0.00) rc: 1.98
For H.mpn, standard SIESTA heuristics set lmxkb to 2
 (one more than the basis l, including polarization orbitals).
Use PS.lmax or PS.KBprojectors blocks to override.
For C.mpn, standard SIESTA heuristics set lmxkb to 3
 (one more than the basis l, including polarization orbitals).
Use PS.lmax or PS.KBprojectors blocks to override.

<basis_specs>
===============================================================================
H.mpn                Z=   1    Mass=  1.0100        Charge= 0.17977+309
Lmxo=0 Lmxkb= 2    BasisType=split      Semic=F
L=0  Nsemic=0  Cnfigmx=1
          n=1  nzeta=2  polorb=1
            splnorm:   0.15000    
               vcte:    0.0000    
               rinn:    0.0000    
               qcoe:    0.0000    
               qyuk:    0.0000    
               qwid:   0.10000E-01
                rcs:    0.0000      0.0000    
            lambdas:    1.0000      1.0000    
-------------------------------------------------------------------------------
L=0  Nkbl=1  erefs: 0.17977+309
L=1  Nkbl=1  erefs: 0.17977+309
L=2  Nkbl=1  erefs: 0.17977+309
===============================================================================
</basis_specs>

atom: Called for H.mpn                 (Z =   1)

read_vps: Pseudopotential generation method:
read_vps: ATM3      Troullier-Martins                       
Total valence charge:    1.00000

xc_check: Exchange-correlation functional:
xc_check: GGA Perdew, Burke & Ernzerhof 1996
V l=0 = -2*Zval/r beyond r=  1.2343
V l=1 = -2*Zval/r beyond r=  1.2189
V l=2 = -2*Zval/r beyond r=  1.2189
All V_l potentials equal beyond r=  1.2343
This should be close to max(r_c) in ps generation
All pots = -2*Zval/r beyond r=  1.2343

VLOCAL1: 99.0% of the norm of Vloc inside     28.493 Ry
VLOCAL1: 99.9% of the norm of Vloc inside     64.935 Ry
atom: Maximum radius for 4*pi*r*r*local-pseudopot. charge    1.45251
atom: Maximum radius for r*vlocal+2*Zval:    1.21892
GHOST: No ghost state for L =  0
GHOST: No ghost state for L =  1
GHOST: No ghost state for L =  2

KBgen: Kleinman-Bylander projectors: 
   l= 0   rc=  1.398961   el= -0.477184   Ekb= -2.022489   kbcos= -0.344760
   l= 1   rc=  1.730774   el=  0.001076   Ekb= -0.447448   kbcos= -0.022756
   l= 2   rc=  2.036604   el=  0.002010   Ekb= -0.163621   kbcos= -0.002660

KBgen: Total number of  Kleinman-Bylander projectors:    9
atom: -------------------------------------------------------------------------

atom: SANKEY-TYPE ORBITALS:
atom: Selected multiple-zeta basis: split     

SPLIT: Orbitals with angular momentum L= 0

SPLIT: Basis orbitals for state 1s

SPLIT: PAO cut-off radius determined from an
SPLIT: energy shift=  0.020000 Ry

   izeta = 1
                 lambda =    1.000000
                     rc =    4.708991
                 energy =   -0.457736
                kinetic =    0.981128
    potential(screened) =   -1.438864
       potential(ionic) =   -1.967294

   izeta = 2
                 rmatch =    3.759707
              splitnorm =    0.150000
                 energy =   -0.338971
                kinetic =    1.585754
    potential(screened) =   -1.924724
       potential(ionic) =   -2.475189

POLgen: Perturbative polarization orbital with L=  1

POLgen: Polarization orbital for state 1s

   izeta = 1
                     rc =    4.708991
                 energy =    0.764910
                kinetic =    1.475806
    potential(screened) =   -0.710896
       potential(ionic) =   -1.203352
atom: Total number of Sankey-type orbitals:  5

atm_pop: Valence configuration (for local Pseudopot. screening):
 1s( 1.00)                                                            
Vna: chval, zval:    1.00000   1.00000

Vna:  Cut-off radius for the neutral-atom potential:   4.708991

atom: _________________________________________________________________________

<basis_specs>
===============================================================================
C.mpn                Z=   6    Mass=  12.010        Charge= 0.17977+309
Lmxo=1 Lmxkb= 3    BasisType=split      Semic=F
L=0  Nsemic=0  Cnfigmx=2
          n=1  nzeta=2  polorb=0
            splnorm:   0.15000    
               vcte:    0.0000    
               rinn:    0.0000    
               qcoe:    0.0000    
               qyuk:    0.0000    
               qwid:   0.10000E-01
                rcs:    0.0000      0.0000    
            lambdas:    1.0000      1.0000    
L=1  Nsemic=0  Cnfigmx=2
          n=1  nzeta=2  polorb=1
            splnorm:   0.15000    
               vcte:    0.0000    
               rinn:    0.0000    
               qcoe:    0.0000    
               qyuk:    0.0000    
               qwid:   0.10000E-01
                rcs:    0.0000      0.0000    
            lambdas:    1.0000      1.0000    
-------------------------------------------------------------------------------
L=0  Nkbl=1  erefs: 0.17977+309
L=1  Nkbl=1  erefs: 0.17977+309
L=2  Nkbl=1  erefs: 0.17977+309
L=3  Nkbl=1  erefs: 0.17977+309
===============================================================================
</basis_specs>

atom: Called for C.mpn                 (Z =   6)

read_vps: Pseudopotential generation method:
read_vps: ATM3      Troullier-Martins                       
Total valence charge:    4.00000

xc_check: Exchange-correlation functional:
xc_check: GGA Perdew, Burke & Ernzerhof 1996
V l=0 = -2*Zval/r beyond r=  1.5418
V l=1 = -2*Zval/r beyond r=  1.5418
V l=2 = -2*Zval/r beyond r=  1.9553
V l=3 = -2*Zval/r beyond r=  1.9310
All V_l potentials equal beyond r=  1.9310
This should be close to max(r_c) in ps generation
All pots = -2*Zval/r beyond r=  1.9553

VLOCAL1: 99.0% of the norm of Vloc inside     11.642 Ry
VLOCAL1: 99.9% of the norm of Vloc inside     26.531 Ry
atom: Maximum radius for 4*pi*r*r*local-pseudopot. charge    2.30035
atom: Maximum radius for r*vlocal+2*Zval:    2.00478
GHOST: No ghost state for L =  0
GHOST: No ghost state for L =  1
GHOST: No ghost state for L =  2
GHOST: No ghost state for L =  3

KBgen: Kleinman-Bylander projectors: 
   l= 0   rc=  2.134104   el= -1.010225   Ekb= 11.465766   kbcos=  0.116141
   l= 1   rc=  2.107589   el= -0.388560   Ekb= -6.457899   kbcos= -0.368830
   l= 2   rc=  2.300349   el=  0.001971   Ekb= -0.774314   kbcos= -0.017397
   l= 3   rc=  2.542323   el=  0.003065   Ekb= -0.308789   kbcos= -0.003148

KBgen: Total number of  Kleinman-Bylander projectors:   16
atom: -------------------------------------------------------------------------

atom: SANKEY-TYPE ORBITALS:
atom: Selected multiple-zeta basis: split     

SPLIT: Orbitals with angular momentum L= 0

SPLIT: Basis orbitals for state 2s

SPLIT: PAO cut-off radius determined from an
SPLIT: energy shift=  0.020000 Ry

   izeta = 1
                 lambda =    1.000000
                     rc =    4.088342
                 energy =   -0.989563
                kinetic =    0.944133
    potential(screened) =   -1.933696
       potential(ionic) =   -5.541314

   izeta = 2
                 rmatch =    3.347176
              splitnorm =    0.150000
                 energy =   -0.831414
                kinetic =    1.451472
    potential(screened) =   -2.282886
       potential(ionic) =   -6.119280

SPLIT: Orbitals with angular momentum L= 1

SPLIT: Basis orbitals for state 2p

SPLIT: PAO cut-off radius determined from an
SPLIT: energy shift=  0.020000 Ry

   izeta = 1
                 lambda =    1.000000
                     rc =    4.870301
                 energy =   -0.368749
                kinetic =    2.591962
    potential(screened) =   -2.960711
       potential(ionic) =   -6.464403

   izeta = 2
                 rmatch =    3.475094
              splitnorm =    0.150000
                 energy =   -0.206255
                kinetic =    3.888945
    potential(screened) =   -4.095199
       potential(ionic) =   -7.968192

POLgen: Perturbative polarization orbital with L=  2

POLgen: Polarization orbital for state 2p

   izeta = 1
                     rc =    4.870301
                 energy =    1.295231
                kinetic =    2.621946
    potential(screened) =   -1.326714
       potential(ionic) =   -4.277432
atom: Total number of Sankey-type orbitals: 13

atm_pop: Valence configuration (for local Pseudopot. screening):
 2s( 2.00)                                                            
 2p( 2.00)                                                            
Vna: chval, zval:    4.00000   4.00000

Vna:  Cut-off radius for the neutral-atom potential:   4.870301

atom: _________________________________________________________________________

prinput: Basis input ----------------------------------------------------------

PAO.BasisType split     

%block ChemicalSpeciesLabel
    1    1 H.mpn                   # Species index, atomic number, species label
    2    6 C.mpn                   # Species index, atomic number, species label
%endblock ChemicalSpeciesLabel

%block PAO.Basis                 # Define Basis set
H.mpn                 1                    # Species label, number of l-shells
 n=1   0   2 P   1                   # n, l, Nzeta, Polarization, NzetaPol
   4.709      3.760   
   1.000      1.000   
C.mpn                 2                    # Species label, number of l-shells
 n=2   0   2                         # n, l, Nzeta 
   4.088      3.347   
   1.000      1.000   
 n=2   1   2 P   1                   # n, l, Nzeta, Polarization, NzetaPol
   4.870      3.475   
   1.000      1.000   
%endblock PAO.Basis

prinput: ----------------------------------------------------------------------

Dumping basis to NetCDF file H.mpn.ion.nc
Dumping basis to NetCDF file C.mpn.ion.nc
coor:   Atomic-coordinates input format  =     Cartesian coordinates
coor:                                          (in Angstroms)

siesta: WARNING: XV file not found

siesta: Atomic coordinates (Bohr) and species
siesta:     21.94435  11.61052  18.89727  1        1
siesta:     20.35456  15.41566  18.89727  2        2
siesta:     26.36444  10.51697  18.89727  1        3
siesta:     22.32263  13.69076  18.89727  2        4
siesta:     24.91061  14.35007  18.89727  2        5
siesta:     20.99597  18.04609  18.89727  2        6
siesta:     23.59169  18.81095  18.89727  2        7
siesta:     22.28542  23.27758  18.89727  2        8
siesta:     30.84833   9.38664  18.89727  1        9
siesta:     26.87195  12.54246  18.89727  2       10
siesta:     29.40585  13.23336  18.89727  2       11
siesta:     25.57670  16.98456  18.89727  2       12
siesta:     28.16787  17.70478  18.89727  2       13
siesta:     24.24877  21.43307  18.89727  2       14
siesta:     26.86914  22.15212  18.89727  2       15
siesta:     22.94881  25.87004  18.89727  2       16
siesta:     25.55208  26.61225  18.89727  2       17
siesta:     24.28481  31.10353  18.89727  2       18
siesta:     23.63038  35.16180  18.89727  1       19
siesta:     31.39518  11.42118  18.89727  2       20
siesta:     33.87674  12.14018  18.89727  2       21
siesta:     30.11601  15.83858  18.89727  2       22
siesta:     32.73657  16.55125  18.89727  2       23
siesta:     28.82052  20.30499  18.89727  2       24
siesta:     31.43163  21.01562  18.89727  2       25
siesta:     27.51719  24.77536  18.89727  2       26
siesta:     30.12838  25.48607  18.89727  2       27
siesta:     26.21237  29.23922  18.89727  2       28
siesta:     28.83265  29.95265  18.89727  2       29
siesta:     25.07172  33.65067  18.89727  2       30
siesta:     27.55330  34.36988  18.89727  2       31
siesta:     35.31832  10.62918  18.89727  1       32
siesta:     34.66387  14.68755  18.89727  2       33
siesta:     33.39622  19.17882  18.89727  2       34
siesta:     36.00039  19.92129  18.89727  2       35
siesta:     32.07981  23.63876  18.89727  2       36
siesta:     34.70016  24.35810  18.89727  2       37
siesta:     30.78128  28.08616  18.89727  2       38
siesta:     33.37266  28.80620  18.89727  2       39
siesta:     29.54280  32.55760  18.89727  2       40
siesta:     32.07647  33.24850  18.89727  2       41
siesta:     28.09941  36.40460  18.89727  1       42
siesta:     36.66333  22.51338  18.89727  2       43
siesta:     35.35772  26.97940  18.89727  2       44
siesta:     37.95313  27.74538  18.89727  2       45
siesta:     34.03772  31.44080  18.89727  2       46
siesta:     36.62601  32.10062  18.89727  2       47
siesta:     32.58344  35.27405  18.89727  1       48
siesta:     38.59372  30.37544  18.89727  2       49
siesta:     37.00454  34.18064  18.89727  1       50

siesta: System type = chain     

initatomlists: Number of atoms, orbitals, and projectors:     50   586   744

siesta: ******************** Simulation parameters ****************************
siesta:
siesta: The following are some of the parameters of the simulation.
siesta: A complete list of the parameters used, including default values,
siesta: can be found in file out.fdf
siesta:
redata: Spin configuration                          = collinear
redata: Number of spin components                   = 2
redata: Time-Reversal Symmetry                      = T
redata: Spin-spiral                                 = F
redata: Long output                                 =   F
redata: Number of Atomic Species                    =        2
redata: Charge density info will appear in .RHO file
redata: Write Mulliken Pop.                         = Atomic and Orbital charges
redata: Mesh Cutoff                                 =   400.0000 Ry
redata: Net charge of the system                    =     0.0000 |e|
redata: Min. number of SCF Iter                     =        0
redata: Max. number of SCF Iter                     =     3000
redata: SCF convergence failure will abort job
redata: SCF mix quantity                            = Hamiltonian
redata: Mix DM or H after convergence               =   F
redata: Recompute H after scf cycle                 =   F
redata: Mix DM in first SCF step                    =   T
redata: Write Pulay info on disk                    =   F
redata: New DM Mixing Weight                        =     0.1000
redata: New DM Occupancy tolerance                  = 0.000000000001
redata: No kicks to SCF
redata: DM Mixing Weight for Kicks                  =     0.5000
redata: Require Harris convergence for SCF          =   F
redata: Harris energy tolerance for SCF             =     0.000100 eV
redata: Require DM convergence for SCF              =   T
redata: DM tolerance for SCF                        =     0.000010
redata: Require EDM convergence for SCF             =   F
redata: EDM tolerance for SCF                       =     0.001000 eV
redata: Require H convergence for SCF               =   T
redata: Hamiltonian tolerance for SCF               =     0.001000 eV
redata: Require (free) Energy convergence for SCF   =   F
redata: (free) Energy tolerance for SCF             =     0.000100 eV
redata: Antiferro initial spin density              =   F
redata: Using Saved Data (generic)                  =   F
redata: Use continuation files for DM               =   T
redata: Neglect nonoverlap interactions             =   F
redata: Method of Calculation                       = Diagonalization
redata: Electronic Temperature                      =   299.9869 K
redata: Fix the spin of the system                  =   F
redata: Dynamics option                             = CG coord. optimization
redata: Variable cell                               =   F
redata: Use continuation files for CG               =   F
redata: Max atomic displ per move                   =     0.1058 Ang
redata: Maximum number of CG moves                  =     1000
redata: Force tolerance                             =     0.0020 eV/Ang
mix.SCF: Pulay mixing                            = Pulay
mix.SCF:    Variant                              = stable
mix.SCF:    History steps                        = 7
mix.SCF:    Linear mixing weight                 =     0.100000
mix.SCF:    Mixing weight                        =     0.100000
mix.SCF:    SVD condition                        = 0.1000E-07
mix.SCF: Spin-component mixing                   all
redata: Save all siesta data in one NC              =   F
redata: ***********************************************************************

%block SCF.Mixers
  Pulay
%endblock SCF.Mixers

%block SCF.Mixer.Pulay
  # Mixing method
  method pulay
  variant stable

  # Mixing options
  weight 0.1000
  weight.linear 0.1000
  history 7
%endblock SCF.Mixer.Pulay
 
DM_history_depth set to one: no extrapolation allowed by default for geometry relaxation
Size of DM history Fstack: 1
Total number of electrons:   176.000000
Total ionic charge:   176.000000

* ProcessorY, Blocksize:    4  24


* Orbital distribution balance (max,min):    34    24

k-point displ. along   1 input, could be:     0.00    0.50
 Kpoints in:           51 . Kpoints trimmed:           51

siesta: k-grid: Number of k-points =    51
siesta: k-grid: Cutoff (effective) =    10.000 Ang
siesta: k-grid: Supercell and displacements
siesta: k-grid:  100   0   0      0.000
siesta: k-grid:    0   1   0      0.000
siesta: k-grid:    0   0   1      0.000
 
diag: Algorithm                                     = D&C
diag: Parallel over k                               =   T
diag: Use parallel 2D distribution                  =   T
diag: Parallel block-size                           = 24
diag: Parallel distribution                         =     4 x     6
diag: Used triangular part                          = Lower
diag: Absolute tolerance                            =  0.100E-15
diag: Orthogonalization factor                      =  0.100E-05
diag: Memory factor                                 =  1.0000

superc: Internal auxiliary supercell:     3 x     1 x     1  =       3
superc: Number of atoms, orbitals, and projectors:    150   1758   2232
 
 
ts: **************************************************************
ts: Save H and S matrices                           =    T
ts: Save DM and EDM matrices                        =    F
ts: Fix Hartree potential                           =    F
ts: Only save the overlap matrix S                  =    F
ts: **************************************************************
 
************************ Begin: TS CHECKS AND WARNINGS ************************
************************ End: TS CHECKS AND WARNINGS **************************


                     ====================================
                        Begin CG opt. move =      0
                     ====================================

superc: Internal auxiliary supercell:     3 x     1 x     1  =       3
superc: Number of atoms, orbitals, and projectors:    150   1758   2232

outcell: Unit cell vectors (Ang):
        8.970000    0.000000    0.000000
        0.000000   50.000000    0.000000
        0.000000    0.000000   20.000000

outcell: Cell vector modules (Ang)   :    8.970000   50.000000   20.000000
outcell: Cell angles (23,13,12) (deg):     90.0000     90.0000     90.0000
outcell: Cell volume (Ang**3)        :   8970.0000
<dSpData1D:S at geom step 0
  <sparsity:sparsity for geom step 0
    nrows_g=586 nrows=34 sparsity=.0456 nnzs=15653, refcount: 7>
  <dData1D:(new from dSpData1D) n=15653, refcount: 1>
refcount: 1>
new_DM -- step:     1
Initializing Density Matrix...
 
Attempting to read DM from file... Failed...
DM filled with atomic data (user-defined):
<dSpData2D:DM initialized from atoms
  <sparsity:sparsity for geom step 0
    nrows_g=586 nrows=34 sparsity=.0456 nnzs=15653, refcount: 8>
  <dData2D:DM n=15653 m=2, refcount: 1>
refcount: 1>

initDM: Initial spin polarization (Qup-Qdown) =    0.000000

No. of atoms with KB's overlaping orbs in proc 0. Max # of overlaps:      42     217
New grid distribution:   1
           1       1:   54    1:   80    1:   21
           2       1:   54    1:   80   22:   42
           3       1:   54    1:   80   43:   63
           4       1:   54    1:   80   64:   84
           5       1:   54    1:   80   85:  105
           6       1:   54    1:   80  106:  125
           7       1:   54   81:  160    1:   21
           8       1:   54   81:  160   22:   42
           9       1:   54   81:  160   43:   63
          10       1:   54   81:  160   64:   84
          11       1:   54   81:  160   85:  105
          12       1:   54   81:  160  106:  125
          13       1:   54  161:  240    1:   21
          14       1:   54  161:  240   22:   42
          15       1:   54  161:  240   43:   63
          16       1:   54  161:  240   64:   84
          17       1:   54  161:  240   85:  105
          18       1:   54  161:  240  106:  125
          19       1:   54  241:  320    1:   21
          20       1:   54  241:  320   22:   42
          21       1:   54  241:  320   43:   63
          22       1:   54  241:  320   64:   84
          23       1:   54  241:  320   85:  105
          24       1:   54  241:  320  106:  125

InitMesh: MESH =   108 x   640 x   250 =    17280000
InitMesh: (bp) =    54 x   320 x   125 =     2160000
InitMesh: Mesh cutoff (required, used) =   400.000   400.649 Ry
ExtMesh (bp) on 0 =   118 x   148 x    89 =     1554296
New grid distribution:   2
           1       1:   54    1:   46    1:   63
           2       1:   54   66:   78    1:   59
           3       1:   54   47:   59   64:   67
           4       1:   54   60:   66   64:  125
           5       1:   54    1:   46   64:  125
           6       1:   54   66:   78   60:   63
           7       1:   54   85:   97    1:   59
           8       1:   54   98:  104    1:   63
           9       1:   54   47:   59    1:   59
          10       1:   54  105:  320   64:   67
          11       1:   54   98:  104   64:  125
          12       1:   54   47:   59   60:   63
          13       1:   54  105:  320    1:   58
          14       1:   54   85:   97   68:  125
          15       1:   54   79:   84    1:   63
          16       1:   54   85:   97   60:   63
          17       1:   54  105:  320   68:  125
          18       1:   54   47:   59   68:  125
          19       1:   54   60:   65    1:   63
          20       1:   54   85:   97   64:   67
          21       1:   54  105:  320   59:   63
          22       1:   54   67:   78   68:  125
          23       1:   54   79:   84   64:  125
          24       1:   54   67:   78   64:   67
New grid distribution:   3
           1       1:   54    1:   32    1:   63
           2       1:   54   33:   51    1:   55
           3       1:   54   52:   61    1:   63
           4       1:   54   33:   51   64:   71
           5       1:   54    1:   32   64:  125
           6       1:   54   33:   51   72:  125
           7       1:   54  107:  116    1:   63
           8       1:   54   33:   51   56:   63
           9       1:   54  117:  320   57:   63
          10       1:   54   89:  106    1:   55
          11       1:   54   52:   61   64:  125
          12       1:   54   62:   79   56:   63
          13       1:   54  117:  320    1:   56
          14       1:   54   62:   79    1:   55
          15       1:   54   80:   88    1:   63
          16       1:   54   89:  106   56:   63
          17       1:   54  116:  320   71:  125
          18       1:   54   62:   79   72:  125
          19       1:   54  107:  115   64:  125
          20       1:   54   89:  106   64:   71
          21       1:   54   89:  106   72:  125
          22       1:   54  116:  320   64:   70
          23       1:   54   80:   88   64:  125
          24       1:   54   62:   79   64:   71
Setting up quadratic distribution...
ExtMesh (bp) on 0 =   118 x   114 x   131 =     1762212
PhiOnMesh: Number of (b)points on node 0 =               156492
PhiOnMesh: nlist on node 0 =               557753

stepf: Fermi-Dirac step function

siesta: Program's energy decomposition (eV):
siesta: Ebs     =     -2007.238630
siesta: Eions   =      8622.831464
siesta: Ena     =       858.927633
siesta: Ekin    =      4952.321090
siesta: Enl     =     -1570.891873
siesta: Eso     =         0.000000
siesta: Eldau   =         0.000000
siesta: DEna    =      -154.573842
siesta: DUscf   =        17.187535
siesta: DUext   =         0.000000
siesta: Enegf   =         0.000000
siesta: Exc     =     -2099.860243
siesta: eta*DQ  =         0.000000
siesta: Emadel  =         0.000000
siesta: Emeta   =         0.000000
siesta: Emolmec =         0.000000
siesta: Ekinion =         0.000000
siesta: Eharris =     -6647.674200
siesta: Etot    =     -6619.721164
siesta: FreeEng =     -6619.721521

        iscf     Eharris(eV)        E_KS(eV)     FreeEng(eV)     dDmax    Ef(eV) dHmax(eV)
   scf:    1    -6647.674200    -6619.721164    -6619.721521  0.967010 -5.026477  5.009368
timer: Routine,Calls,Time,% = IterSCF        1       8.216  69.96
   scf:    2    -6621.469737    -6620.632828    -6620.633149  0.008767 -4.751779  3.984625
   scf:    3    -6623.042905    -6622.195701    -6622.196032  0.035676 -3.672019  1.545056
   scf:    4    -6622.580430    -6622.437224    -6622.437576  0.016043 -3.392053  0.448870
   scf:    5    -6622.511777    -6622.480346    -6622.480699  0.005951 -3.334714  0.195209
   scf:    6    -6622.484585    -6622.482645    -6622.482995  0.000946 -3.355543  0.170379
   scf:    7    -6622.499297    -6622.491436    -6622.491772  0.001855 -3.366479  0.082578
   scf:    8    -6622.495678    -6622.493467    -6622.493789  0.001272 -3.375981  0.064314
   scf:    9    -6622.495887    -6622.494619    -6622.494930  0.001107 -3.369107  0.031428
   scf:   10    -6622.496020    -6622.495265    -6622.495561  0.000790 -3.371079  0.017128
   scf:   11    -6622.495869    -6622.495544    -6622.495829  0.000523 -3.371396  0.012933
   scf:   12    -6622.495795    -6622.495663    -6622.495938  0.000315 -3.371246  0.009427
   scf:   13    -6622.495999    -6622.495810    -6622.496068  0.000545 -3.371079  0.005475
   scf:   14    -6622.495953    -6622.495874    -6622.496120  0.000318 -3.371033  0.003249
   scf:   15    -6622.495911    -6622.495892    -6622.496133  0.000102 -3.370955  0.003467
   scf:   16    -6622.496000    -6622.495937    -6622.496165  0.000317 -3.370621  0.003752
   scf:   17    -6622.495961    -6622.495949    -6622.496172  0.000089 -3.370517  0.003284
   scf:   18    -6622.495970    -6622.495958    -6622.496178  0.000110 -3.370441  0.002215
   scf:   19    -6622.495973    -6622.495965    -6622.496182  0.000094 -3.370410  0.001500
   scf:   20    -6622.495988    -6622.495976    -6622.496186  0.000157 -3.370392  0.000970
   scf:   21    -6622.495980    -6622.495978    -6622.496187  0.000032 -3.370387  0.000895
   scf:   22    -6622.495991    -6622.495983    -6622.496189  0.000093 -3.370365  0.000457
   scf:   23    -6622.495985    -6622.495984    -6622.496189  0.000016 -3.370370  0.000373
   scf:   24    -6622.495985    -6622.495985    -6622.496189  0.000010 -3.370373  0.000307

SCF Convergence by DM+H criterion
max |DM_out - DM_in|         :     0.0000098960
max |H_out - H_in|      (eV) :     0.0003074024
SCF cycle converged after 24 iterations

Using DM_out to compute the final energy and forces
No. of atoms with KB's overlaping orbs in proc 0. Max # of overlaps:      42     217

siesta: E_KS(eV) =            -6622.4960

siesta: E_KS - E_eggbox =     -6622.4960

siesta: Total spin polarization (Qup-Qdown) =    0.000002

siesta: Atomic forces (eV/Ang):
----------------------------------------
   Tot    0.001253    0.006671   -0.000000
----------------------------------------
   Max    1.930768
   Res    0.406625    sqrt( Sum f_i^2 / 3N )
----------------------------------------
   Max    1.930768    constrained

Stress-tensor-Voigt (kbar):       -3.21       -6.10        0.01       -0.16        0.00        0.00
(Free)E + p*V (eV/cell)    -6605.1279
Target enthalpy (eV/cell)    -6622.4962
 
mulliken: Atomic and Orbital Populations:

mulliken: Spin UP 

Species: H.mpn               
Atom  Qatom  Qorb
               1s      1s      1Ppy    1Ppz    1Ppx    
   1  0.617   0.420   0.149   0.022   0.015   0.011
   3  0.621   0.430   0.143   0.022   0.015   0.011
   9  0.619   0.434   0.137   0.021   0.016   0.012
  19  0.618   0.421   0.146   0.017   0.016   0.018
  32  0.617   0.420   0.146   0.017   0.017   0.018
  42  0.618   0.431   0.137   0.021   0.018   0.012
  48  0.618   0.425   0.142   0.022   0.020   0.011
  50  0.615   0.415   0.148   0.022   0.019   0.011

Species: C.mpn               
Atom  Qatom  Qorb
               2s      2s      2py     2pz     2px     2py     2pz     2px     
               2Pdxy   2Pdyz   2Pdz2   2Pdxz   2Pdx2-y2
   2  2.000   0.230   0.264   0.220   0.394   0.220   0.256   0.089   0.258
              0.020   0.014   0.001   0.013   0.022
   4  1.848   0.199   0.274   0.082   0.357   0.244   0.341   0.054   0.241
              0.014   0.004   0.001   0.016   0.021
   5  1.982   0.228   0.265   0.215   0.385   0.209   0.255   0.089   0.265
              0.021   0.014   0.001   0.013   0.021
   6  1.983   0.242   0.257   0.225   0.379   0.230   0.253   0.075   0.249
              0.021   0.016   0.001   0.015   0.021
   7  2.010   0.239   0.260   0.231   0.396   0.227   0.251   0.082   0.252
              0.021   0.014   0.001   0.015   0.021
   8  2.009   0.234   0.262   0.227   0.392   0.225   0.255   0.086   0.255
              0.021   0.015   0.001   0.015   0.021
  10  1.843   0.195   0.276   0.076   0.359   0.245   0.345   0.052   0.240
              0.015   0.004   0.001   0.016   0.020
  11  1.981   0.225   0.265   0.213   0.380   0.202   0.259   0.093   0.273
              0.021   0.014   0.001   0.014   0.021
  12  1.989   0.242   0.257   0.227   0.382   0.224   0.252   0.078   0.253
              0.021   0.014   0.001   0.015   0.021
  13  2.010   0.235   0.262   0.228   0.392   0.225   0.255   0.085   0.255
              0.021   0.015   0.001   0.015   0.021
  14  1.989   0.241   0.258   0.230   0.383   0.227   0.250   0.077   0.250
              0.021   0.015   0.001   0.015   0.021
  15  2.010   0.239   0.260   0.230   0.397   0.227   0.251   0.082   0.251
              0.021   0.014   0.001   0.014   0.021
  16  1.989   0.238   0.259   0.229   0.380   0.227   0.252   0.078   0.251
              0.021   0.016   0.001   0.016   0.021
  17  2.021   0.238   0.261   0.230   0.405   0.227   0.251   0.084   0.252
              0.021   0.015   0.001   0.015   0.021
  18  2.029   0.234   0.263   0.214   0.417   0.227   0.259   0.093   0.250
              0.021   0.014   0.001   0.015   0.021
  20  1.859   0.190   0.278   0.084   0.372   0.229   0.338   0.063   0.248
              0.016   0.004   0.001   0.016   0.019
  21  1.911   0.184   0.284   0.151   0.406   0.155   0.300   0.075   0.303
              0.022   0.009   0.001   0.009   0.013
  22  1.982   0.243   0.256   0.227   0.378   0.226   0.252   0.076   0.250
              0.021   0.014   0.002   0.015   0.021
  23  2.011   0.239   0.261   0.228   0.397   0.226   0.253   0.082   0.255
              0.021   0.014   0.001   0.014   0.022
  24  1.984   0.237   0.259   0.229   0.376   0.225   0.253   0.078   0.252
              0.021   0.015   0.001   0.016   0.021
  25  2.011   0.238   0.261   0.231   0.398   0.226   0.251   0.082   0.253
              0.021   0.014   0.001   0.014   0.021
  26  1.989   0.239   0.259   0.231   0.381   0.226   0.250   0.077   0.252
              0.021   0.015   0.001   0.016   0.021
  27  2.017   0.236   0.262   0.229   0.399   0.225   0.254   0.086   0.254
              0.021   0.015   0.001   0.015   0.021
  28  1.990   0.241   0.258   0.227   0.380   0.226   0.251   0.078   0.252
              0.021   0.016   0.001   0.016   0.022
  29  2.018   0.241   0.259   0.227   0.404   0.226   0.254   0.084   0.251
              0.021   0.013   0.001   0.014   0.021
  30  1.880   0.185   0.281   0.151   0.381   0.154   0.298   0.070   0.302
              0.022   0.011   0.001   0.011   0.013
  31  1.928   0.187   0.283   0.086   0.424   0.230   0.339   0.076   0.249
              0.016   0.004   0.000   0.015   0.019
  33  1.941   0.237   0.256   0.214   0.354   0.227   0.257   0.074   0.248
              0.021   0.015   0.001   0.016   0.021
  34  1.981   0.240   0.258   0.230   0.377   0.228   0.250   0.075   0.250
              0.021   0.015   0.001   0.016   0.021
  35  2.012   0.236   0.262   0.229   0.397   0.227   0.254   0.083   0.252
              0.021   0.015   0.001   0.014   0.021
  36  1.991   0.240   0.258   0.230   0.384   0.227   0.250   0.078   0.250
              0.021   0.016   0.001   0.015   0.021
  37  2.011   0.240   0.260   0.231   0.398   0.227   0.250   0.082   0.251
              0.021   0.014   0.001   0.015   0.021
  38  1.990   0.237   0.260   0.228   0.378   0.225   0.253   0.080   0.254
              0.021   0.016   0.001   0.016   0.021
  39  2.010   0.241   0.259   0.227   0.397   0.224   0.253   0.082   0.254
              0.021   0.013   0.001   0.014   0.021
  40  1.956   0.228   0.261   0.213   0.359   0.203   0.256   0.087   0.269
              0.021   0.014   0.001   0.021   0.021
  41  1.981   0.192   0.284   0.079   0.460   0.246   0.346   0.077   0.242
              0.015   0.004   0.000   0.015   0.019
  43  1.991   0.235   0.261   0.227   0.380   0.225   0.254   0.082   0.254
              0.021   0.016   0.001   0.016   0.021
  44  1.991   0.240   0.258   0.231   0.382   0.226   0.249   0.078   0.252
              0.021   0.015   0.001   0.016   0.021
  45  2.017   0.240   0.260   0.225   0.404   0.230   0.254   0.083   0.250
              0.021   0.014   0.001   0.014   0.021
  46  1.956   0.231   0.259   0.217   0.362   0.211   0.252   0.083   0.260
              0.021   0.015   0.001   0.021   0.021
  47  1.983   0.196   0.282   0.085   0.458   0.246   0.342   0.078   0.243
              0.014   0.004   0.000   0.015   0.021
  49  1.971   0.233   0.259   0.221   0.369   0.221   0.252   0.082   0.254
              0.020   0.016   0.001   0.019   0.022

mulliken: Qtot =       88.000

mulliken: Spin DOWN 

Species: H.mpn               
Atom  Qatom  Qorb
               1s      1s      1Ppy    1Ppz    1Ppx    
   1  0.615   0.415   0.148   0.022   0.019   0.011
   3  0.618   0.425   0.142   0.022   0.020   0.011
   9  0.618   0.431   0.137   0.021   0.018   0.012
  19  0.617   0.420   0.146   0.017   0.017   0.018
  32  0.618   0.421   0.146   0.017   0.016   0.018
  42  0.619   0.434   0.137   0.021   0.016   0.012
  48  0.621   0.430   0.142   0.022   0.015   0.011
  50  0.617   0.420   0.149   0.022   0.015   0.011

Species: C.mpn               
Atom  Qatom  Qorb
               2s      2s      2py     2pz     2px     2py     2pz     2px     
               2Pdxy   2Pdyz   2Pdz2   2Pdxz   2Pdx2-y2
   2  1.971   0.233   0.259   0.221   0.369   0.221   0.252   0.082   0.254
              0.020   0.016   0.001   0.019   0.022
   4  1.983   0.196   0.282   0.085   0.458   0.246   0.342   0.078   0.243
              0.014   0.004   0.000   0.015   0.021
   5  1.956   0.231   0.259   0.217   0.362   0.211   0.252   0.083   0.260
              0.021   0.015   0.001   0.021   0.021
   6  2.017   0.240   0.260   0.225   0.404   0.230   0.254   0.083   0.250
              0.021   0.014   0.001   0.014   0.021
   7  1.991   0.240   0.258   0.231   0.382   0.227   0.250   0.078   0.251
              0.021   0.015   0.001   0.016   0.021
   8  1.992   0.235   0.261   0.227   0.380   0.225   0.254   0.082   0.254
              0.021   0.016   0.001   0.016   0.021
  10  1.981   0.192   0.284   0.079   0.460   0.247   0.346   0.077   0.242
              0.015   0.004   0.000   0.015   0.019
  11  1.956   0.228   0.261   0.213   0.359   0.203   0.256   0.087   0.269
              0.021   0.014   0.001   0.021   0.021
  12  2.010   0.241   0.259   0.227   0.397   0.225   0.253   0.082   0.254
              0.021   0.013   0.001   0.014   0.021
  13  1.990   0.237   0.260   0.228   0.378   0.225   0.253   0.080   0.254
              0.021   0.016   0.001   0.016   0.021
  14  2.011   0.240   0.260   0.230   0.398   0.227   0.251   0.082   0.251
              0.021   0.014   0.001   0.015   0.021
  15  1.991   0.240   0.258   0.230   0.384   0.227   0.250   0.078   0.250
              0.021   0.016   0.001   0.015   0.021
  16  2.012   0.236   0.261   0.229   0.397   0.227   0.253   0.083   0.252
              0.021   0.015   0.001   0.014   0.021
  17  1.982   0.240   0.257   0.230   0.377   0.227   0.250   0.075   0.251
              0.021   0.015   0.001   0.016   0.021
  18  1.941   0.237   0.256   0.214   0.354   0.227   0.257   0.074   0.248
              0.021   0.015   0.001   0.016   0.021
  20  1.928   0.188   0.283   0.086   0.424   0.230   0.339   0.076   0.249
              0.016   0.004   0.000   0.015   0.019
  21  1.880   0.185   0.281   0.151   0.381   0.154   0.298   0.070   0.302
              0.022   0.011   0.001   0.011   0.013
  22  2.018   0.241   0.259   0.227   0.404   0.226   0.254   0.084   0.251
              0.021   0.013   0.001   0.014   0.021
  23  1.990   0.241   0.258   0.228   0.380   0.227   0.251   0.078   0.252
              0.021   0.016   0.001   0.016   0.022
  24  2.017   0.235   0.262   0.229   0.399   0.225   0.254   0.086   0.254
              0.021   0.015   0.001   0.015   0.021
  25  1.989   0.239   0.259   0.231   0.381   0.226   0.250   0.078   0.252
              0.021   0.015   0.001   0.016   0.021
  26  2.011   0.238   0.261   0.231   0.398   0.226   0.251   0.082   0.253
              0.021   0.014   0.001   0.014   0.021
  27  1.984   0.237   0.259   0.229   0.376   0.225   0.253   0.078   0.252
              0.021   0.015   0.001   0.016   0.021
  28  2.011   0.239   0.261   0.227   0.397   0.226   0.253   0.082   0.255
              0.021   0.014   0.001   0.014   0.022
  29  1.982   0.243   0.256   0.227   0.378   0.226   0.252   0.076   0.250
              0.021   0.014   0.002   0.015   0.021
  30  1.911   0.183   0.284   0.151   0.406   0.155   0.300   0.075   0.303
              0.022   0.009   0.001   0.009   0.013
  31  1.859   0.189   0.279   0.084   0.372   0.230   0.339   0.063   0.248
              0.016   0.004   0.001   0.016   0.019
  33  2.029   0.234   0.263   0.214   0.417   0.227   0.259   0.093   0.250
              0.021   0.014   0.001   0.015   0.021
  34  2.021   0.238   0.261   0.230   0.405   0.228   0.251   0.084   0.252
              0.021   0.015   0.001   0.015   0.021
  35  1.989   0.238   0.259   0.229   0.381   0.227   0.252   0.078   0.250
              0.021   0.016   0.001   0.016   0.021
  36  2.010   0.239   0.260   0.230   0.397   0.227   0.251   0.082   0.251
              0.021   0.014   0.001   0.014   0.021
  37  1.989   0.241   0.258   0.230   0.383   0.227   0.250   0.077   0.250
              0.021   0.015   0.001   0.015   0.021
  38  2.010   0.235   0.262   0.228   0.392   0.225   0.255   0.085   0.255
              0.021   0.015   0.001   0.015   0.021
  39  1.989   0.242   0.257   0.227   0.382   0.224   0.252   0.078   0.254
              0.021   0.014   0.001   0.015   0.021
  40  1.981   0.225   0.265   0.212   0.380   0.202   0.259   0.093   0.273
              0.021   0.014   0.001   0.014   0.021
  41  1.843   0.195   0.276   0.075   0.359   0.245   0.345   0.052   0.241
              0.015   0.004   0.001   0.016   0.020
  43  2.009   0.234   0.262   0.227   0.392   0.225   0.255   0.086   0.255
              0.021   0.015   0.001   0.015   0.021
  44  2.010   0.239   0.260   0.232   0.396   0.226   0.250   0.082   0.253
              0.021   0.014   0.001   0.015   0.021
  45  1.982   0.242   0.257   0.225   0.379   0.229   0.253   0.075   0.249
              0.021   0.016   0.001   0.015   0.021
  46  1.982   0.228   0.264   0.215   0.385   0.210   0.255   0.089   0.265
              0.021   0.014   0.001   0.013   0.021
  47  1.848   0.199   0.274   0.082   0.357   0.244   0.341   0.054   0.241
              0.014   0.005   0.001   0.016   0.021
  49  2.000   0.230   0.264   0.220   0.394   0.220   0.256   0.089   0.258
              0.020   0.014   0.001   0.013   0.022

mulliken: Qtot =       88.000

                     ====================================
                        Begin CG opt. move =      1
                     ====================================

superc: Internal auxiliary supercell:     3 x     1 x     1  =       3
superc: Number of atoms, orbitals, and projectors:    150   1758   2232

outcell: Unit cell vectors (Ang):
        8.970000    0.000000    0.000000
        0.000000   50.000000    0.000000
        0.000000    0.000000   20.000000

outcell: Cell vector modules (Ang)   :    8.970000   50.000000   20.000000
outcell: Cell angles (23,13,12) (deg):     90.0000     90.0000     90.0000
outcell: Cell volume (Ang**3)        :   8970.0000
<dSpData1D:S at geom step 1
  <sparsity:sparsity for geom step 1
    nrows_g=586 nrows=34 sparsity=.0456 nnzs=15653, refcount: 7>
  <dData1D:(new from dSpData1D) n=15653, refcount: 1>
refcount: 1>
new_DM -- step:     2
Re-using DM from previous geometries...
Number of DMs in history: 1
 DM extrapolation coefficients: 
1   1.00000
New DM after history re-use:
<dSpData2D:SpM extrapolated using coords
  <sparsity:sparsity for geom step 1
    nrows_g=586 nrows=34 sparsity=.0456 nnzs=15653, refcount: 8>
  <dData2D:(temp array for extrapolation) n=15653 m=2, refcount: 1>
refcount: 1>
No. of atoms with KB's overlaping orbs in proc 0. Max # of overlaps:      42     217
New grid distribution:   1
           1       1:   54    1:   80    1:   21
           2       1:   54    1:   80   22:   42
           3       1:   54    1:   80   43:   63
           4       1:   54    1:   80   64:   84
           5       1:   54    1:   80   85:  105
           6       1:   54    1:   80  106:  125
           7       1:   54   81:  160    1:   21
           8       1:   54   81:  160   22:   42
           9       1:   54   81:  160   43:   63
          10       1:   54   81:  160   64:   84
          11       1:   54   81:  160   85:  105
          12       1:   54   81:  160  106:  125
          13       1:   54  161:  240    1:   21
          14       1:   54  161:  240   22:   42
          15       1:   54  161:  240   43:   63
          16       1:   54  161:  240   64:   84
          17       1:   54  161:  240   85:  105
          18       1:   54  161:  240  106:  125
          19       1:   54  241:  320    1:   21
          20       1:   54  241:  320   22:   42
          21       1:   54  241:  320   43:   63
          22       1:   54  241:  320   64:   84
          23       1:   54  241:  320   85:  105
          24       1:   54  241:  320  106:  125

InitMesh: MESH =   108 x   640 x   250 =    17280000
InitMesh: (bp) =    54 x   320 x   125 =     2160000
InitMesh: Mesh cutoff (required, used) =   400.000   400.649 Ry
ExtMesh (bp) on 0 =   118 x   148 x    89 =     1554296
New grid distribution:   2
           1       1:   54    1:   45    1:   63
           2       1:   54   46:   59    1:   59
           3       1:   54   46:   59   64:   67
           4       1:   54   60:   66   64:  125
           5       1:   54    1:   45   64:  125
           6       1:   54   46:   59   68:  125
           7       1:   54   98:  104    1:   63
           8       1:   54   46:   59   60:   63
           9       1:   54   85:   97    1:   59
          10       1:   54  105:  320   64:   67
          11       1:   54   79:   85   64:  125
          12       1:   54   66:   78   60:   63
          13       1:   54  105:  320    1:   58
          14       1:   54   66:   78    1:   59
          15       1:   54   98:  104   64:  125
          16       1:   54   85:   97   60:   63
          17       1:   54  105:  320   68:  125
          18       1:   54   67:   78   68:  125
          19       1:   54   60:   65    1:   63
          20       1:   54   86:   97   64:   67
          21       1:   54  105:  320   59:   63
          22       1:   54   86:   97   68:  125
          23       1:   54   79:   84    1:   63
          24       1:   54   67:   78   64:   67
New grid distribution:   3
           1       1:   54    1:   32    1:   63
           2       1:   54   33:   51    1:   55
           3       1:   54   52:   61    1:   63
           4       1:   54   33:   51   64:   71
           5       1:   54    1:   32   64:  125
           6       1:   54   33:   51   72:  125
           7       1:   54  107:  116    1:   63
           8       1:   54   33:   51   56:   63
           9       1:   54  117:  320   57:   63
          10       1:   54   89:  106    1:   55
          11       1:   54   52:   61   64:  125
          12       1:   54   62:   79   56:   63
          13       1:   54  117:  320    1:   56
          14       1:   54   62:   79    1:   55
          15       1:   54   80:   88    1:   63
          16       1:   54   89:  106   56:   63
          17       1:   54  116:  320   71:  125
          18       1:   54   62:   79   72:  125
          19       1:   54  107:  115   64:  125
          20       1:   54   89:  106   64:   71
          21       1:   54   89:  106   72:  125
          22       1:   54  116:  320   64:   70
          23       1:   54   80:   88   64:  125
          24       1:   54   62:   79   64:   71
Setting up quadratic distribution...
ExtMesh (bp) on 0 =   118 x   113 x   131 =     1746754
PhiOnMesh: Number of (b)points on node 0 =               153090
PhiOnMesh: nlist on node 0 =               513864

        iscf     Eharris(eV)        E_KS(eV)     FreeEng(eV)     dDmax    Ef(eV) dHmax(eV)
   scf:    1    -6622.159790    -6622.291664    -6622.291856  0.013484 -3.442415  0.973186
   scf:    2    -6617.671409    -6620.984681    -6620.984916  0.016119 -3.152485  3.557183
   scf:    3    -6622.752932    -6622.476362    -6622.476525  0.012600 -3.368350  0.240296
   scf:    4    -6622.493713    -6622.488484    -6622.488635  0.002673 -3.331099  0.057347
   scf:    5    -6622.489718    -6622.489229    -6622.489373  0.000398 -3.323923  0.023904
   scf:    6    -6622.489423    -6622.489339    -6622.489480  0.000214 -3.322365  0.017939
   scf:    7    -6622.489511    -6622.489431    -6622.489566  0.000274 -3.321896  0.011575
   scf:    8    -6622.489514    -6622.489472    -6622.489602  0.000229 -3.321659  0.010148
   scf:    9    -6622.489547    -6622.489508    -6622.489632  0.000246 -3.321676  0.007817
   scf:   10    -6622.489526    -6622.489517    -6622.489639  0.000071 -3.321624  0.007305
   scf:   11    -6622.489581    -6622.489546    -6622.489662  0.000272 -3.321357  0.004894
   scf:   12    -6622.489613    -6622.489575    -6622.489683  0.000351 -3.320967  0.002422
   scf:   13    -6622.489601    -6622.489586    -6622.489691  0.000193 -3.320768  0.001311
   scf:   14    -6622.489600    -6622.489592    -6622.489694  0.000118 -3.320706  0.000934
   scf:   15    -6622.489595    -6622.489594    -6622.489695  0.000027 -3.320714  0.000900
   scf:   16    -6622.489603    -6622.489598    -6622.489697  0.000087 -3.320763  0.000597
   scf:   17    -6622.489601    -6622.489599    -6622.489698  0.000041 -3.320782  0.000399
   scf:   18    -6622.489600    -6622.489600    -6622.489698  0.000017 -3.320801  0.000230
   scf:   19    -6622.489600    -6622.489600    -6622.489698  0.000007 -3.320809  0.000199

SCF Convergence by DM+H criterion
max |DM_out - DM_in|         :     0.0000072143
max |H_out - H_in|      (eV) :     0.0001986022
SCF cycle converged after 19 iterations

Using DM_out to compute the final energy and forces
No. of atoms with KB's overlaping orbs in proc 0. Max # of overlaps:      42     217

siesta: E_KS(eV) =            -6622.4896

siesta: Total spin polarization (Qup-Qdown) =   -0.000000

siesta: Atomic forces (eV/Ang):
----------------------------------------
   Tot   -0.025802   -0.021984   -0.000000
----------------------------------------
   Max    1.696867
   Res    0.509298    sqrt( Sum f_i^2 / 3N )
----------------------------------------
   Max    1.696867    constrained

Stress-tensor-Voigt (kbar):       -2.14       -6.17        0.01        0.15       -0.00        0.00
(Free)E + p*V (eV/cell)    -6606.9925
Target enthalpy (eV/cell)    -6622.4897
 
mulliken: Atomic and Orbital Populations:

mulliken: Spin UP 

Species: H.mpn               
Atom  Qatom  Qorb
               1s      1s      1Ppy    1Ppz    1Ppx    
   1  0.622   0.416   0.156   0.022   0.016   0.012
   3  0.622   0.427   0.146   0.022   0.016   0.011
   9  0.622   0.430   0.142   0.021   0.017   0.012
  19  0.621   0.419   0.151   0.017   0.017   0.018
  32  0.621   0.417   0.150   0.017   0.019   0.018
  42  0.621   0.427   0.142   0.021   0.019   0.012
  48  0.620   0.421   0.145   0.022   0.021   0.011
  50  0.620   0.410   0.156   0.022   0.021   0.012

Species: C.mpn               
Atom  Qatom  Qorb
               2s      2s      2py     2pz     2px     2py     2pz     2px     
               2Pdxy   2Pdyz   2Pdz2   2Pdxz   2Pdx2-y2
   2  2.003   0.238   0.261   0.222   0.403   0.226   0.250   0.082   0.252
              0.020   0.013   0.001   0.013   0.021
   4  1.831   0.194   0.276   0.068   0.354   0.250   0.355   0.046   0.232
              0.014   0.004   0.001   0.015   0.020
   5  1.984   0.227   0.265   0.209   0.384   0.214   0.262   0.091   0.262
              0.021   0.014   0.001   0.012   0.021
   6  1.984   0.240   0.258   0.226   0.377   0.227   0.253   0.077   0.251
              0.021   0.016   0.001   0.015   0.021
   7  2.010   0.237   0.261   0.231   0.396   0.227   0.251   0.083   0.252
              0.021   0.015   0.001   0.015   0.021
   8  2.010   0.239   0.260   0.230   0.398   0.228   0.250   0.081   0.251
              0.021   0.014   0.001   0.015   0.021
  10  1.831   0.196   0.275   0.068   0.356   0.252   0.353   0.046   0.231
              0.014   0.004   0.001   0.015   0.020
  11  1.983   0.232   0.263   0.211   0.387   0.211   0.259   0.088   0.263
              0.021   0.014   0.001   0.013   0.021
  12  1.989   0.239   0.258   0.224   0.380   0.225   0.256   0.080   0.253
              0.021   0.015   0.002   0.015   0.021
  13  2.011   0.236   0.262   0.229   0.394   0.226   0.253   0.084   0.254
              0.021   0.014   0.001   0.015   0.021
  14  1.991   0.237   0.260   0.228   0.380   0.225   0.253   0.080   0.253
              0.021   0.015   0.001   0.016   0.021
  15  2.010   0.237   0.261   0.230   0.397   0.226   0.252   0.083   0.252
              0.021   0.014   0.001   0.015   0.021
  16  1.989   0.239   0.259   0.230   0.380   0.226   0.250   0.078   0.252
              0.021   0.016   0.001   0.016   0.021
  17  2.021   0.238   0.261   0.230   0.405   0.227   0.252   0.085   0.252
              0.021   0.015   0.001   0.015   0.021
  18  2.029   0.237   0.262   0.214   0.419   0.229   0.256   0.090   0.250
              0.021   0.014   0.001   0.015   0.021
  20  1.855   0.185   0.281   0.073   0.374   0.235   0.352   0.060   0.241
              0.015   0.004   0.001   0.015   0.019
  21  1.910   0.183   0.285   0.151   0.416   0.155   0.299   0.068   0.300
              0.022   0.008   0.001   0.008   0.013
  22  1.983   0.240   0.257   0.225   0.376   0.225   0.254   0.079   0.253
              0.021   0.015   0.002   0.015   0.021
  23  2.011   0.237   0.261   0.228   0.396   0.224   0.253   0.083   0.256
              0.021   0.014   0.001   0.014   0.021
  24  1.984   0.240   0.258   0.230   0.379   0.226   0.250   0.076   0.251
              0.021   0.015   0.001   0.015   0.021
  25  2.012   0.236   0.262   0.229   0.397   0.226   0.253   0.084   0.254
              0.021   0.015   0.001   0.014   0.021
  26  1.989   0.238   0.259   0.229   0.380   0.225   0.251   0.079   0.253
              0.021   0.016   0.001   0.016   0.021
  27  2.017   0.238   0.261   0.231   0.402   0.226   0.251   0.083   0.252
              0.021   0.014   0.001   0.015   0.021
  28  1.989   0.240   0.258   0.228   0.379   0.225   0.251   0.079   0.254
              0.021   0.016   0.001   0.016   0.021
  29  2.018   0.238   0.261   0.226   0.401   0.225   0.255   0.086   0.254
              0.021   0.013   0.001   0.014   0.021
  30  1.873   0.185   0.282   0.151   0.387   0.155   0.297   0.062   0.299
              0.022   0.011   0.001   0.010   0.012
  31  1.927   0.183   0.286   0.075   0.428   0.236   0.353   0.072   0.242
              0.015   0.004   0.000   0.014   0.019
  33  1.943   0.241   0.255   0.215   0.356   0.229   0.253   0.072   0.248
              0.021   0.015   0.001   0.016   0.021
  34  1.981   0.240   0.258   0.229   0.376   0.227   0.251   0.076   0.251
              0.021   0.015   0.001   0.016   0.021
  35  2.013   0.237   0.261   0.229   0.398   0.226   0.252   0.083   0.254
              0.021   0.015   0.001   0.014   0.021
  36  1.990   0.238   0.259   0.230   0.382   0.226   0.251   0.079   0.252
              0.021   0.016   0.001   0.016   0.021
  37  2.011   0.236   0.262   0.228   0.395   0.225   0.254   0.085   0.254
              0.021   0.015   0.001   0.015   0.021
  38  1.989   0.238   0.259   0.229   0.378   0.226   0.251   0.079   0.253
              0.021   0.016   0.001   0.016   0.021
  39  2.012   0.238   0.261   0.224   0.398   0.225   0.256   0.085   0.254
              0.021   0.014   0.001   0.014   0.021
  40  1.954   0.235   0.258   0.212   0.363   0.213   0.256   0.082   0.258
              0.021   0.015   0.001   0.020   0.021
  41  1.987   0.192   0.285   0.071   0.472   0.254   0.354   0.073   0.233
              0.014   0.004   0.000   0.014   0.020
  43  1.990   0.240   0.258   0.230   0.383   0.228   0.249   0.077   0.250
              0.021   0.015   0.001   0.015   0.021
  44  1.988   0.239   0.259   0.231   0.380   0.226   0.250   0.079   0.251
              0.021   0.015   0.001   0.016   0.021
  45  2.019   0.238   0.261   0.226   0.403   0.227   0.255   0.085   0.253
              0.021   0.014   0.001   0.015   0.021
  46  1.954   0.231   0.259   0.210   0.358   0.216   0.258   0.084   0.256
              0.021   0.016   0.001   0.021   0.021
  47  1.990   0.190   0.286   0.072   0.473   0.252   0.356   0.073   0.234
              0.014   0.004   0.000   0.014   0.020
  49  1.968   0.242   0.255   0.224   0.373   0.227   0.247   0.074   0.248
              0.020   0.016   0.001   0.019   0.021

mulliken: Qtot =       88.000

mulliken: Spin DOWN 

Species: H.mpn               
Atom  Qatom  Qorb
               1s      1s      1Ppy    1Ppz    1Ppx    
   1  0.620   0.410   0.156   0.022   0.021   0.012
   3  0.620   0.421   0.146   0.022   0.021   0.011
   9  0.621   0.427   0.142   0.021   0.019   0.012
  19  0.621   0.417   0.151   0.017   0.019   0.018
  32  0.621   0.419   0.151   0.017   0.017   0.018
  42  0.622   0.430   0.142   0.021   0.017   0.012
  48  0.622   0.427   0.146   0.022   0.016   0.011
  50  0.622   0.416   0.156   0.022   0.016   0.012

Species: C.mpn               
Atom  Qatom  Qorb
               2s      2s      2py     2pz     2px     2py     2pz     2px     
               2Pdxy   2Pdyz   2Pdz2   2Pdxz   2Pdx2-y2
   2  1.968   0.242   0.255   0.223   0.373   0.227   0.247   0.074   0.248
              0.020   0.016   0.001   0.019   0.021
   4  1.989   0.190   0.286   0.072   0.473   0.252   0.356   0.073   0.234
              0.014   0.004   0.000   0.014   0.020
   5  1.954   0.231   0.259   0.210   0.358   0.216   0.258   0.084   0.256
              0.021   0.016   0.001   0.021   0.021
   6  2.019   0.238   0.261   0.226   0.403   0.227   0.255   0.085   0.253
              0.021   0.014   0.001   0.015   0.021
   7  1.988   0.239   0.259   0.231   0.380   0.227   0.250   0.078   0.251
              0.021   0.015   0.001   0.016   0.021
   8  1.990   0.240   0.258   0.230   0.383   0.228   0.249   0.077   0.250
              0.021   0.015   0.001   0.015   0.021
  10  1.987   0.192   0.285   0.072   0.472   0.254   0.354   0.073   0.233
              0.014   0.004   0.000   0.014   0.020
  11  1.954   0.235   0.258   0.212   0.363   0.213   0.256   0.082   0.258
              0.021   0.015   0.001   0.020   0.021
  12  2.012   0.237   0.261   0.224   0.398   0.225   0.257   0.085   0.254
              0.021   0.014   0.001   0.014   0.021
  13  1.989   0.238   0.259   0.229   0.378   0.226   0.252   0.079   0.253
              0.021   0.016   0.001   0.016   0.021
  14  2.011   0.236   0.262   0.228   0.395   0.225   0.254   0.085   0.254
              0.021   0.015   0.001   0.015   0.021
  15  1.990   0.238   0.259   0.230   0.382   0.226   0.251   0.078   0.251
              0.021   0.016   0.001   0.016   0.021
  16  2.012   0.237   0.261   0.230   0.398   0.226   0.252   0.083   0.254
              0.021   0.015   0.001   0.014   0.021
  17  1.981   0.240   0.258   0.230   0.376   0.227   0.251   0.076   0.251
              0.021   0.015   0.001   0.016   0.021
  18  1.943   0.241   0.255   0.215   0.356   0.229   0.253   0.072   0.248
              0.021   0.015   0.001   0.016   0.021
  20  1.927   0.183   0.286   0.075   0.428   0.236   0.353   0.072   0.242
              0.015   0.004   0.000   0.014   0.019
  21  1.873   0.185   0.282   0.151   0.387   0.155   0.297   0.062   0.299
              0.022   0.011   0.001   0.010   0.012
  22  2.018   0.238   0.261   0.226   0.401   0.225   0.255   0.086   0.254
              0.021   0.013   0.001   0.014   0.021
  23  1.989   0.240   0.258   0.228   0.379   0.225   0.251   0.079   0.254
              0.021   0.016   0.001   0.016   0.021
  24  2.017   0.238   0.261   0.230   0.402   0.226   0.251   0.083   0.252
              0.021   0.014   0.001   0.015   0.021
  25  1.989   0.238   0.259   0.229   0.380   0.226   0.252   0.079   0.252
              0.021   0.016   0.001   0.016   0.021
  26  2.012   0.236   0.262   0.229   0.397   0.225   0.253   0.084   0.254
              0.021   0.015   0.001   0.014   0.021
  27  1.984   0.240   0.258   0.231   0.379   0.226   0.250   0.076   0.251
              0.021   0.015   0.001   0.015   0.021
  28  2.011   0.237   0.261   0.228   0.396   0.224   0.253   0.083   0.256
              0.021   0.014   0.001   0.014   0.021
  29  1.983   0.240   0.257   0.226   0.376   0.225   0.254   0.079   0.253
              0.021   0.015   0.002   0.015   0.021
  30  1.910   0.183   0.285   0.152   0.416   0.155   0.299   0.068   0.301
              0.022   0.008   0.001   0.008   0.013
  31  1.855   0.185   0.281   0.073   0.374   0.235   0.352   0.059   0.241
              0.015   0.004   0.001   0.015   0.019
  33  2.029   0.237   0.262   0.214   0.419   0.230   0.256   0.090   0.250
              0.021   0.014   0.001   0.015   0.021
  34  2.021   0.238   0.261   0.229   0.405   0.227   0.252   0.085   0.252
              0.021   0.015   0.001   0.015   0.021
  35  1.989   0.238   0.259   0.229   0.380   0.226   0.251   0.078   0.252
              0.021   0.016   0.001   0.016   0.021
  36  2.010   0.237   0.261   0.230   0.397   0.226   0.252   0.083   0.253
              0.021   0.014   0.001   0.015   0.021
  37  1.990   0.237   0.260   0.228   0.380   0.225   0.253   0.080   0.253
              0.021   0.015   0.001   0.016   0.021
  38  2.011   0.237   0.262   0.229   0.394   0.226   0.253   0.084   0.254
              0.021   0.014   0.001   0.015   0.021
  39  1.989   0.239   0.258   0.224   0.380   0.225   0.255   0.080   0.253
              0.021   0.015   0.002   0.015   0.021
  40  1.983   0.232   0.262   0.211   0.387   0.211   0.259   0.088   0.263
              0.021   0.014   0.001   0.013   0.021
  41  1.831   0.196   0.275   0.068   0.356   0.252   0.353   0.046   0.231
              0.014   0.004   0.001   0.015   0.020
  43  2.010   0.239   0.260   0.230   0.397   0.228   0.250   0.081   0.251
              0.021   0.014   0.001   0.015   0.021
  44  2.010   0.237   0.261   0.231   0.396   0.226   0.251   0.083   0.252
              0.021   0.015   0.001   0.015   0.021
  45  1.984   0.240   0.258   0.226   0.377   0.227   0.253   0.077   0.252
              0.021   0.016   0.001   0.015   0.021
  46  1.983   0.227   0.265   0.208   0.384   0.215   0.262   0.091   0.262
              0.021   0.014   0.001   0.012   0.021
  47  1.831   0.193   0.276   0.068   0.354   0.250   0.355   0.046   0.232
              0.014   0.004   0.001   0.015   0.020
  49  2.003   0.238   0.261   0.222   0.403   0.225   0.250   0.082   0.252
              0.020   0.013   0.001   0.013   0.021

mulliken: Qtot =       88.000

                     ====================================
                        Begin CG opt. move =      2
                     ====================================

superc: Internal auxiliary supercell:     3 x     1 x     1  =       3
superc: Number of atoms, orbitals, and projectors:    150   1758   2232

outcell: Unit cell vectors (Ang):
        8.970000    0.000000    0.000000
        0.000000   50.000000    0.000000
        0.000000    0.000000   20.000000

outcell: Cell vector modules (Ang)   :    8.970000   50.000000   20.000000
outcell: Cell angles (23,13,12) (deg):     90.0000     90.0000     90.0000
outcell: Cell volume (Ang**3)        :   8970.0000
<dSpData1D:S at geom step 2
  <sparsity:sparsity for geom step 2
    nrows_g=586 nrows=34 sparsity=.0456 nnzs=15653, refcount: 7>
  <dData1D:(new from dSpData1D) n=15653, refcount: 1>
refcount: 1>
new_DM -- step:     3
Re-using DM from previous geometries...
Number of DMs in history: 1
 DM extrapolation coefficients: 
1   1.00000
New DM after history re-use:
<dSpData2D:SpM extrapolated using coords
  <sparsity:sparsity for geom step 2
    nrows_g=586 nrows=34 sparsity=.0456 nnzs=15653, refcount: 8>
  <dData2D:(temp array for extrapolation) n=15653 m=2, refcount: 1>
refcount: 1>
No. of atoms with KB's overlaping orbs in proc 0. Max # of overlaps:      42     217
New grid distribution:   1
           1       1:   54    1:   80    1:   21
           2       1:   54    1:   80   22:   42
           3       1:   54    1:   80   43:   63
           4       1:   54    1:   80   64:   84
           5       1:   54    1:   80   85:  105
           6       1:   54    1:   80  106:  125
           7       1:   54   81:  160    1:   21
           8       1:   54   81:  160   22:   42
           9       1:   54   81:  160   43:   63
          10       1:   54   81:  160   64:   84
          11       1:   54   81:  160   85:  105
          12       1:   54   81:  160  106:  125
          13       1:   54  161:  240    1:   21
          14       1:   54  161:  240   22:   42
          15       1:   54  161:  240   43:   63
          16       1:   54  161:  240   64:   84
          17       1:   54  161:  240   85:  105
          18       1:   54  161:  240  106:  125
          19       1:   54  241:  320    1:   21
          20       1:   54  241:  320   22:   42
          21       1:   54  241:  320   43:   63
          22       1:   54  241:  320   64:   84
          23       1:   54  241:  320   85:  105
          24       1:   54  241:  320  106:  125

InitMesh: MESH =   108 x   640 x   250 =    17280000
InitMesh: (bp) =    54 x   320 x   125 =     2160000
InitMesh: Mesh cutoff (required, used) =   400.000   400.649 Ry
ExtMesh (bp) on 0 =   118 x   148 x    89 =     1554296
New grid distribution:   2
           1       1:   54    1:   46    1:   63
           2       1:   54   66:   78    1:   59
           3       1:   54   98:  104   64:  125
           4       1:   54   47:   59   64:   67
           5       1:   54    1:   46   64:  125
           6       1:   54   47:   59    1:   59
           7       1:   54   98:  104    1:   63
           8       1:   54   66:   78   60:   63
           9       1:   54   85:   97    1:   59
          10       1:   54  105:  320   64:   67
          11       1:   54   79:   85   64:  125
          12       1:   54   47:   59   60:   63
          13       1:   54  105:  320    1:   58
          14       1:   54   47:   59   68:  125
          15       1:   54   60:   66   64:  125
          16       1:   54   85:   97   60:   63
          17       1:   54  105:  320   68:  125
          18       1:   54   67:   78   68:  125
          19       1:   54   60:   65    1:   63
          20       1:   54   86:   97   64:   67
          21       1:   54  105:  320   59:   63
          22       1:   54   86:   97   68:  125
          23       1:   54   79:   84    1:   63
          24       1:   54   67:   78   64:   67
New grid distribution:   3
           1       1:   54    1:   32    1:   63
           2       1:   54   33:   51    1:   55
           3       1:   54   52:   61    1:   63
           4       1:   54   33:   51   64:   71
           5       1:   54    1:   32   64:  125
           6       1:   54   33:   51   72:  125
           7       1:   54  107:  116    1:   63
           8       1:   54   33:   51   56:   63
           9       1:   54  117:  320   57:   63
          10       1:   54   89:  106    1:   55
          11       1:   54   52:   61   64:  125
          12       1:   54   62:   79   56:   63
          13       1:   54  117:  320    1:   56
          14       1:   54   62:   79    1:   55
          15       1:   54   80:   88    1:   63
          16       1:   54   89:  106   56:   63
          17       1:   54  116:  320   71:  125
          18       1:   54   62:   79   72:  125
          19       1:   54  107:  115   64:  125
          20       1:   54   89:  106   64:   71
          21       1:   54   89:  106   72:  125
          22       1:   54  116:  320   64:   70
          23       1:   54   80:   88   64:  125
          24       1:   54   62:   79   64:   71
Setting up quadratic distribution...
ExtMesh (bp) on 0 =   118 x   114 x   131 =     1762212
PhiOnMesh: Number of (b)points on node 0 =               156492
PhiOnMesh: nlist on node 0 =               558687

        iscf     Eharris(eV)        E_KS(eV)     FreeEng(eV)     dDmax    Ef(eV) dHmax(eV)
   scf:    1    -6622.348083    -6622.578910    -6622.579015  0.006709 -3.284388  0.474554
   scf:    2    -6621.555259    -6622.291740    -6622.291900  0.007546 -3.429394  1.626438
   scf:    3    -6622.684984    -6622.622707    -6622.622819  0.005948 -3.321920  0.116403
   scf:    4    -6622.626974    -6622.625649    -6622.625765  0.001298 -3.340399  0.027057
   scf:    5    -6622.625935    -6622.625817    -6622.625936  0.000173 -3.344009  0.010403
   scf:    6    -6622.625866    -6622.625846    -6622.625967  0.000160 -3.344469  0.008789
   scf:    7    -6622.625873    -6622.625861    -6622.625985  0.000127 -3.344735  0.005475
   scf:    8    -6622.625877    -6622.625868    -6622.625996  0.000155 -3.344717  0.004366
   scf:    9    -6622.625874    -6622.625871    -6622.626000  0.000094 -3.344780  0.003441
   scf:   10    -6622.625873    -6622.625872    -6622.626003  0.000052 -3.344840  0.002948
   scf:   11    -6622.625876    -6622.625873    -6622.626007  0.000136 -3.345000  0.001848
   scf:   12    -6622.625874    -6622.625872    -6622.626011  0.000170 -3.345187  0.000624
   scf:   13    -6622.625872    -6622.625872    -6622.626012  0.000028 -3.345206  0.000534
   scf:   14    -6622.625871    -6622.625872    -6622.626012  0.000032 -3.345219  0.000435
   scf:   15    -6622.625871    -6622.625871    -6622.626012  0.000035 -3.345219  0.000358
   scf:   16    -6622.625869    -6622.625870    -6622.626013  0.000045 -3.345196  0.000169
   scf:   17    -6622.625870    -6622.625870    -6622.626013  0.000003 -3.345195  0.000148

SCF Convergence by DM+H criterion
max |DM_out - DM_in|         :     0.0000029351
max |H_out - H_in|      (eV) :     0.0001476796
SCF cycle converged after 17 iterations

Using DM_out to compute the final energy and forces
No. of atoms with KB's overlaping orbs in proc 0. Max # of overlaps:      42     217

siesta: E_KS(eV) =            -6622.6259

siesta: Total spin polarization (Qup-Qdown) =    0.000001

siesta: Atomic forces (eV/Ang):
----------------------------------------
   Tot   -0.017968    0.003709    0.000000
----------------------------------------
   Max    0.436391
   Res    0.148870    sqrt( Sum f_i^2 / 3N )
----------------------------------------
   Max    0.436391    constrained

Stress-tensor-Voigt (kbar):       -2.62       -6.09        0.01       -0.00        0.00        0.00
(Free)E + p*V (eV/cell)    -6606.3852
Target enthalpy (eV/cell)    -6622.6260
 
mulliken: Atomic and Orbital Populations:

mulliken: Spin UP 

Species: H.mpn               
Atom  Qatom  Qorb
               1s      1s      1Ppy    1Ppz    1Ppx    
   1  0.619   0.417   0.153   0.022   0.015   0.012
   3  0.621   0.429   0.144   0.022   0.016   0.011
   9  0.621   0.432   0.140   0.021   0.016   0.012
  19  0.619   0.420   0.148   0.017   0.017   0.018
  32  0.619   0.419   0.148   0.017   0.018   0.018
  42  0.620   0.429   0.139   0.021   0.019   0.012
  48  0.619   0.423   0.144   0.022   0.020   0.011
  50  0.617   0.412   0.152   0.022   0.020   0.012

Species: C.mpn               
Atom  Qatom  Qorb
               2s      2s      2py     2pz     2px     2py     2pz     2px     
               2Pdxy   2Pdyz   2Pdz2   2Pdxz   2Pdx2-y2
   2  2.001   0.234   0.263   0.221   0.398   0.223   0.253   0.085   0.255
              0.020   0.014   0.001   0.013   0.021
   4  1.839   0.196   0.275   0.075   0.356   0.247   0.348   0.050   0.237
              0.014   0.004   0.001   0.015   0.021
   5  1.983   0.227   0.265   0.212   0.385   0.212   0.258   0.090   0.264
              0.021   0.014   0.001   0.013   0.021
   6  1.983   0.241   0.257   0.225   0.378   0.229   0.253   0.076   0.250
              0.021   0.016   0.001   0.015   0.021
   7  2.010   0.238   0.261   0.231   0.396   0.227   0.251   0.083   0.252
              0.021   0.015   0.001   0.015   0.021
   8  2.009   0.236   0.261   0.228   0.395   0.227   0.253   0.084   0.253
              0.021   0.015   0.001   0.015   0.021
  10  1.837   0.195   0.276   0.072   0.358   0.249   0.349   0.049   0.236
              0.015   0.004   0.001   0.015   0.020
  11  1.982   0.229   0.264   0.212   0.383   0.206   0.259   0.090   0.269
              0.021   0.014   0.001   0.013   0.021
  12  1.989   0.241   0.258   0.225   0.381   0.225   0.254   0.079   0.253
              0.021   0.015   0.001   0.015   0.021
  13  2.010   0.236   0.262   0.229   0.393   0.225   0.254   0.084   0.255
              0.021   0.014   0.001   0.015   0.021
  14  1.990   0.239   0.259   0.229   0.382   0.226   0.251   0.078   0.252
              0.021   0.015   0.001   0.015   0.021
  15  2.010   0.238   0.261   0.230   0.397   0.227   0.251   0.082   0.252
              0.021   0.014   0.001   0.014   0.021
  16  1.989   0.238   0.259   0.229   0.380   0.226   0.251   0.078   0.252
              0.021   0.016   0.001   0.016   0.021
  17  2.021   0.238   0.261   0.230   0.405   0.227   0.251   0.084   0.252
              0.021   0.015   0.001   0.015   0.021
  18  2.029   0.235   0.262   0.214   0.418   0.228   0.258   0.092   0.250
              0.021   0.014   0.001   0.015   0.021
  20  1.857   0.187   0.280   0.079   0.373   0.232   0.345   0.061   0.245
              0.015   0.004   0.001   0.016   0.019
  21  1.911   0.183   0.285   0.151   0.411   0.155   0.299   0.072   0.302
              0.022   0.008   0.001   0.009   0.013
  22  1.983   0.242   0.257   0.226   0.377   0.226   0.253   0.077   0.251
              0.021   0.014   0.002   0.015   0.021
  23  2.011   0.238   0.261   0.228   0.396   0.225   0.253   0.083   0.255
              0.021   0.014   0.001   0.014   0.022
  24  1.984   0.238   0.259   0.229   0.377   0.226   0.252   0.077   0.252
              0.021   0.015   0.001   0.015   0.021
  25  2.012   0.237   0.261   0.230   0.397   0.226   0.252   0.083   0.253
              0.021   0.015   0.001   0.014   0.021
  26  1.989   0.239   0.259   0.230   0.381   0.226   0.251   0.078   0.252
              0.021   0.016   0.001   0.016   0.021
  27  2.017   0.237   0.261   0.230   0.401   0.226   0.253   0.085   0.253
              0.021   0.015   0.001   0.015   0.021
  28  1.989   0.240   0.258   0.228   0.379   0.226   0.251   0.078   0.253
              0.021   0.016   0.001   0.016   0.022
  29  2.018   0.240   0.260   0.227   0.403   0.226   0.254   0.085   0.253
              0.021   0.013   0.001   0.014   0.021
  30  1.877   0.185   0.281   0.151   0.384   0.155   0.298   0.066   0.300
              0.022   0.011   0.001   0.011   0.013
  31  1.928   0.185   0.284   0.080   0.426   0.233   0.346   0.074   0.246
              0.015   0.004   0.000   0.014   0.019
  33  1.942   0.239   0.255   0.214   0.355   0.228   0.255   0.073   0.248
              0.021   0.015   0.001   0.016   0.021
  34  1.981   0.240   0.258   0.230   0.377   0.227   0.250   0.075   0.250
              0.021   0.015   0.001   0.016   0.021
  35  2.012   0.237   0.261   0.229   0.398   0.227   0.253   0.083   0.253
              0.021   0.015   0.001   0.014   0.021
  36  1.991   0.239   0.259   0.230   0.383   0.227   0.250   0.078   0.251
              0.021   0.016   0.001   0.016   0.021
  37  2.011   0.238   0.261   0.229   0.397   0.226   0.252   0.083   0.253
              0.021   0.015   0.001   0.015   0.021
  38  1.989   0.237   0.259   0.228   0.378   0.225   0.252   0.080   0.254
              0.021   0.016   0.001   0.016   0.021
  39  2.011   0.239   0.260   0.226   0.398   0.224   0.255   0.084   0.254
              0.021   0.013   0.001   0.014   0.021
  40  1.955   0.232   0.259   0.212   0.361   0.208   0.256   0.084   0.264
              0.021   0.015   0.001   0.020   0.021
  41  1.984   0.192   0.285   0.075   0.466   0.250   0.350   0.075   0.238
              0.015   0.004   0.000   0.015   0.020
  43  1.991   0.237   0.259   0.228   0.382   0.226   0.252   0.079   0.252
              0.021   0.016   0.001   0.015   0.021
  44  1.989   0.239   0.259   0.231   0.381   0.226   0.249   0.078   0.251
              0.021   0.015   0.001   0.016   0.021
  45  2.018   0.239   0.261   0.225   0.403   0.228   0.254   0.084   0.252
              0.021   0.014   0.001   0.014   0.021
  46  1.955   0.231   0.259   0.213   0.360   0.214   0.255   0.084   0.258
              0.021   0.016   0.001   0.021   0.021
  47  1.986   0.193   0.284   0.078   0.465   0.249   0.349   0.075   0.238
              0.014   0.004   0.000   0.015   0.020
  49  1.969   0.238   0.257   0.222   0.371   0.224   0.250   0.078   0.251
              0.020   0.016   0.001   0.019   0.021

mulliken: Qtot =       88.000

mulliken: Spin DOWN 

Species: H.mpn               
Atom  Qatom  Qorb
               1s      1s      1Ppy    1Ppz    1Ppx    
   1  0.617   0.412   0.152   0.022   0.020   0.012
   3  0.619   0.423   0.144   0.022   0.020   0.011
   9  0.620   0.429   0.139   0.021   0.019   0.012
  19  0.619   0.418   0.148   0.017   0.018   0.018
  32  0.619   0.420   0.148   0.017   0.017   0.018
  42  0.621   0.431   0.140   0.021   0.016   0.012
  48  0.622   0.429   0.144   0.022   0.016   0.011
  50  0.620   0.418   0.153   0.022   0.015   0.012

Species: C.mpn               
Atom  Qatom  Qorb
               2s      2s      2py     2pz     2px     2py     2pz     2px     
               2Pdxy   2Pdyz   2Pdz2   2Pdxz   2Pdx2-y2
   2  1.969   0.237   0.257   0.222   0.371   0.224   0.250   0.078   0.251
[...]
        147.21 148.99 152.97 160.62 162.12 165.76 166.43 168.90 169.16 170.40
        173.20 173.65 178.61 180.14 180.51 183.69
  50  2 -22.00 -21.95 -21.60 -21.47 -20.97 -20.72 -20.10 -19.73 -19.43 -19.36
        -19.07 -18.97 -18.90 -18.65 -18.29 -18.13 -17.92 -17.60 -17.53 -16.85
        -16.66 -15.93 -15.55 -15.11 -15.00 -14.83 -14.45 -14.36 -14.10 -13.83
        -13.74 -13.59 -13.14 -13.08 -12.99 -12.92 -12.42 -12.34 -12.28 -12.03
        -11.28 -11.10 -10.90 -10.79 -10.66 -10.53 -10.12 -10.08 -10.06 -10.03
         -9.96  -9.75  -9.63  -9.61  -9.51  -9.49  -9.48  -9.34  -9.28  -9.14
         -9.06  -8.90  -8.77  -8.66  -8.64  -8.24  -8.04  -7.99  -7.96  -7.93
         -7.55  -7.55  -7.48  -7.18  -7.15  -7.11  -7.07  -6.88  -6.69  -6.60
         -6.36  -6.05  -5.99  -5.79  -5.41  -5.18  -4.48  -4.31  -2.30  -2.10
         -1.44  -1.38  -0.98  -0.83  -0.57  -0.11   0.15   0.27   0.34   0.79
          0.91   1.56   2.01   2.47   2.49   3.00   3.05   3.37   3.76   3.96
          4.16   4.22   4.45   4.46   4.73   4.87   5.03   5.09   5.16   5.35
          5.36   5.44   5.54   5.62   5.90   6.01   6.23   6.35   6.40   6.43
          6.52   6.79   7.02   7.06   7.44   7.62   7.79   8.04   8.42   8.80
          8.92   9.00   9.07   9.31   9.33   9.40   9.40   9.57   9.64   9.72
          9.86   9.95  10.01  10.07  10.21  10.24  10.42  10.54  10.65  10.70
         10.78  11.05  11.16  11.18  11.19  11.23  11.32  11.37  11.50  11.59
         11.71  11.77  11.88  11.94  12.24  12.31  12.36  12.44  12.54  12.61
         12.66  12.86  12.89  12.98  13.00  13.09  13.15  13.18  13.28  13.32
         13.33  13.34  13.36  13.38  13.41  13.48  13.49  13.50  13.63  13.65
         13.71  13.74  13.81  13.97  14.04  14.07  14.35  14.47  14.48  14.52
         14.79  14.89  14.97  15.06  15.08  15.16  15.22  15.56  15.70  16.26
         16.39  16.45  16.59  16.75  17.03  17.33  17.92  17.94  18.12  18.32
         18.62  18.63  18.67  18.71  18.77  18.91  18.94  19.13  19.22  19.22
         19.37  19.45  19.61  19.67  19.69  19.98  20.03  20.15  20.17  20.29
         20.36  20.40  20.48  20.63  21.05  21.07  21.09  21.09  21.14  21.19
         21.25  21.45  21.68  21.70  21.73  21.74  21.89  21.90  21.97  22.04
         22.18  22.21  22.36  22.43  22.49  22.57  22.62  22.68  22.69  22.75
         22.82  23.11  23.18  23.22  23.56  23.56  23.66  23.68  23.97  24.01
         24.19  24.21  24.28  24.34  24.40  24.76  24.86  24.87  24.95  25.80
         25.82  26.05  26.10  26.26  26.43  26.47  26.59  27.00  27.09  27.44
         27.96  28.43  28.77  29.18  29.25  29.46  30.51  30.87  31.08  31.56
         32.18  32.24  32.29  32.41  32.47  32.85  33.02  33.28  33.37  33.42
         33.59  33.96  34.44  34.55  34.79  35.39  35.69  35.76  35.96  35.98
         36.12  36.16  36.35  36.40  36.49  36.86  36.92  36.99  37.09  37.47
         37.56  37.89  38.33  38.40  38.75  38.77  39.39  39.78  40.30  40.38
         40.68  40.95  41.60  41.63  42.03  42.50  43.37  43.53  43.55  44.10
         44.34  44.49  44.50  44.56  45.12  45.19  45.40  45.58  45.64  45.91
         46.08  47.06  47.11  47.36  47.43  47.64  47.71  47.79  47.98  48.39
         48.49  48.51  48.69  49.67  49.70  49.83  49.95  50.21  50.37  50.49
         50.66  51.11  51.16  51.31  51.59  51.93  52.02  52.18  52.40  52.53
         52.92  53.32  53.43  53.44  53.57  53.73  53.82  54.52  54.67  54.88
         55.08  55.48  55.53  55.70  55.86  56.08  56.43  56.57  56.69  57.37
         57.50  57.69  57.73  58.10  58.11  58.25  58.28  58.80  58.86  59.09
         59.18  59.32  59.61  59.73  59.78  60.42  60.67  60.83  60.92  60.99
         61.36  61.45  61.64  61.84  62.29  62.43  62.51  63.40  63.48  63.51
         64.12  64.17  64.20  64.23  64.43  64.98  65.20  66.43  67.70  68.56
         68.77  69.64  70.06  71.46  71.84  72.31  72.47  73.18  73.46  73.78
         73.95  74.20  74.29  74.59  74.66  74.91  75.25  75.54  75.56  75.98
         76.05  76.17  76.25  76.54  76.67  77.10  78.36  78.55  78.84  79.10
         79.19  79.28  79.89  80.08  80.56  81.09  81.46  81.63  81.87  82.28
         83.06  83.07  83.12  83.19  83.27  84.06  84.30  84.40  84.96  86.23
         86.83  88.36  88.50  89.33  89.60  90.64  92.84  94.42  95.11  95.40
         95.44  96.45  97.31  98.28  98.88 100.15 102.41 103.20 104.65 105.08
        105.88 106.14 107.09 107.24 107.97 109.67 111.18 113.21 115.09 115.45
        120.10 120.48 121.31 121.53 124.20 125.42 128.05 130.53 131.68 132.54
        134.94 135.80 138.06 140.03 140.91 141.37 141.82 143.46 144.74 145.16
        147.21 148.99 152.97 160.62 162.12 165.76 166.43 168.90 169.16 170.40
        173.20 173.65 178.61 180.14 180.51 183.69
  51  1 -21.99 -21.95 -21.60 -21.47 -20.97 -20.72 -20.10 -19.73 -19.40 -19.39
        -19.07 -18.95 -18.92 -18.65 -18.29 -18.14 -17.92 -17.59 -17.53 -16.84
        -16.66 -15.93 -15.55 -15.10 -15.00 -14.83 -14.41 -14.40 -14.10 -13.78
        -13.78 -13.59 -13.13 -13.08 -12.98 -12.93 -12.42 -12.34 -12.28 -12.03
        -11.28 -11.10 -10.90 -10.79 -10.66 -10.54 -10.12 -10.07 -10.06 -10.03
         -9.96  -9.75  -9.63  -9.61  -9.51  -9.49  -9.48  -9.34  -9.28  -9.14
         -9.06  -8.90  -8.77  -8.66  -8.64  -8.24  -8.03  -8.01  -7.96  -7.93
         -7.55  -7.54  -7.50  -7.17  -7.12  -7.11  -7.10  -6.88  -6.67  -6.61
         -6.36  -6.04  -6.00  -5.79  -5.40  -5.18  -4.47  -4.32  -2.30  -2.11
         -1.44  -1.39  -0.99  -0.82  -0.58  -0.11   0.17   0.24   0.34   0.84
          0.86   1.56   2.01   2.47   2.49   3.00   3.05   3.37   3.76   3.96
          4.16   4.22   4.45   4.46   4.73   4.86   5.03   5.10   5.16   5.35
          5.35   5.44   5.54   5.61   5.89   6.01   6.23   6.35   6.41   6.43
          6.50   6.79   7.04   7.05   7.44   7.62   7.79   8.04   8.42   8.81
          8.95   8.96   9.08   9.33   9.33   9.37   9.40   9.57   9.64   9.72
          9.86   9.95  10.01  10.07  10.22  10.23  10.42  10.53  10.65  10.70
         10.78  11.05  11.17  11.18  11.19  11.23  11.32  11.36  11.50  11.59
         11.71  11.76  11.88  11.94  12.24  12.31  12.37  12.43  12.55  12.61
         12.66  12.86  12.89  12.98  13.01  13.08  13.16  13.17  13.28  13.32
         13.33  13.34  13.37  13.37  13.41  13.48  13.49  13.50  13.63  13.65
         13.71  13.75  13.80  13.97  14.04  14.07  14.35  14.47  14.48  14.52
         14.79  14.89  14.97  15.06  15.08  15.18  15.19  15.56  15.71  16.26
         16.39  16.45  16.61  16.73  17.03  17.33  17.92  17.94  18.12  18.32
         18.62  18.63  18.67  18.71  18.77  18.91  18.94  19.13  19.22  19.22
         19.38  19.45  19.61  19.67  19.69  19.98  20.03  20.15  20.17  20.29
         20.36  20.39  20.48  20.63  21.05  21.07  21.09  21.09  21.14  21.19
         21.25  21.45  21.70  21.70  21.71  21.74  21.89  21.90  21.97  22.04
         22.19  22.20  22.36  22.43  22.49  22.58  22.62  22.67  22.70  22.74
         22.82  23.11  23.18  23.22  23.56  23.56  23.66  23.68  23.97  24.01
         24.19  24.23  24.28  24.32  24.40  24.76  24.86  24.88  24.94  25.82
         25.82  26.04  26.10  26.27  26.44  26.46  26.58  27.01  27.09  27.43
         27.96  28.44  28.78  29.21  29.22  29.45  30.51  30.87  31.08  31.56
         32.17  32.24  32.29  32.42  32.46  32.85  33.02  33.28  33.38  33.42
         33.58  33.96  34.44  34.55  34.79  35.39  35.70  35.76  35.96  35.97
         36.11  36.16  36.36  36.39  36.48  36.86  36.92  36.99  37.09  37.47
         37.56  37.89  38.34  38.39  38.75  38.77  39.39  39.78  40.30  40.38
         40.68  40.95  41.61  41.63  42.03  42.50  43.38  43.53  43.56  44.11
         44.34  44.49  44.51  44.55  45.13  45.19  45.40  45.58  45.63  45.91
         46.08  47.07  47.11  47.36  47.43  47.65  47.70  47.79  47.98  48.39
         48.49  48.50  48.68  49.68  49.71  49.84  49.95  50.21  50.38  50.48
         50.66  51.11  51.16  51.30  51.59  51.94  52.02  52.18  52.39  52.54
         52.92  53.32  53.43  53.44  53.58  53.73  53.80  54.58  54.62  54.88
         55.08  55.49  55.52  55.70  55.85  56.09  56.44  56.59  56.67  57.37
         57.50  57.68  57.73  58.10  58.13  58.24  58.28  58.80  58.96  59.09
         59.17  59.29  59.61  59.65  59.79  60.42  60.68  60.84  60.92  60.99
         61.37  61.44  61.64  61.83  62.29  62.42  62.51  63.43  63.47  63.49
         64.12  64.17  64.20  64.23  64.43  64.98  65.20  66.42  67.70  68.57
         68.77  69.64  70.05  71.46  71.84  72.33  72.46  73.18  73.46  73.79
         73.94  74.22  74.26  74.59  74.66  74.91  75.26  75.55  75.55  75.98
         76.05  76.18  76.23  76.55  76.66  77.09  78.37  78.54  78.83  79.13
         79.19  79.26  79.90  80.08  80.56  81.09  81.48  81.64  81.87  82.28
         83.09  83.09  83.10  83.18  83.26  84.11  84.26  84.40  84.95  86.24
         86.84  88.36  88.52  89.40  89.51  90.62  92.82  94.43  95.15  95.37
         95.48  96.40  97.31  98.30  98.85 100.17 102.40 103.20 104.65 105.08
        105.87 106.14 107.10 107.23 107.96 109.69 111.16 113.21 115.17 115.38
        120.12 120.45 121.39 121.46 124.21 125.43 128.12 130.46 132.01 132.24
        135.06 135.67 138.05 140.12 141.04 141.26 141.71 143.45 144.72 145.16
        147.50 148.84 152.86 160.64 162.11 165.78 166.42 168.95 169.11 170.40
        173.39 173.44 178.62 180.28 180.37 183.69
  51  2 -21.99 -21.95 -21.60 -21.47 -20.97 -20.72 -20.10 -19.73 -19.40 -19.39
        -19.07 -18.95 -18.92 -18.65 -18.29 -18.14 -17.92 -17.59 -17.53 -16.84
        -16.66 -15.93 -15.55 -15.10 -15.00 -14.83 -14.41 -14.40 -14.10 -13.78
        -13.78 -13.59 -13.13 -13.08 -12.98 -12.93 -12.42 -12.34 -12.28 -12.03
        -11.28 -11.10 -10.90 -10.79 -10.66 -10.54 -10.12 -10.07 -10.06 -10.03
         -9.96  -9.75  -9.63  -9.61  -9.51  -9.49  -9.48  -9.34  -9.28  -9.14
         -9.06  -8.90  -8.77  -8.66  -8.64  -8.24  -8.03  -8.01  -7.96  -7.93
         -7.55  -7.54  -7.50  -7.17  -7.12  -7.11  -7.10  -6.88  -6.67  -6.61
         -6.36  -6.04  -6.00  -5.79  -5.40  -5.18  -4.47  -4.32  -2.30  -2.11
         -1.44  -1.39  -0.99  -0.82  -0.58  -0.11   0.17   0.24   0.34   0.84
          0.86   1.56   2.01   2.47   2.49   3.00   3.05   3.37   3.76   3.96
          4.16   4.22   4.45   4.46   4.73   4.86   5.03   5.10   5.16   5.35
          5.35   5.44   5.54   5.61   5.89   6.01   6.23   6.35   6.41   6.43
          6.50   6.79   7.04   7.05   7.44   7.62   7.79   8.04   8.42   8.81
          8.95   8.96   9.08   9.33   9.33   9.37   9.40   9.57   9.64   9.72
          9.86   9.95  10.01  10.07  10.22  10.22  10.42  10.53  10.65  10.70
         10.78  11.05  11.17  11.18  11.19  11.23  11.32  11.36  11.50  11.59
         11.71  11.76  11.88  11.94  12.24  12.31  12.37  12.43  12.55  12.61
         12.66  12.86  12.89  12.98  13.01  13.08  13.16  13.17  13.28  13.32
         13.33  13.34  13.37  13.37  13.41  13.48  13.49  13.50  13.63  13.65
         13.71  13.75  13.80  13.97  14.04  14.07  14.35  14.47  14.48  14.52
         14.79  14.89  14.97  15.06  15.08  15.18  15.19  15.56  15.71  16.26
         16.39  16.45  16.61  16.73  17.03  17.33  17.92  17.94  18.12  18.32
         18.62  18.63  18.67  18.71  18.77  18.91  18.94  19.13  19.22  19.22
         19.38  19.45  19.61  19.67  19.69  19.98  20.03  20.15  20.17  20.29
         20.36  20.39  20.48  20.63  21.05  21.06  21.09  21.09  21.14  21.19
         21.25  21.45  21.70  21.70  21.71  21.74  21.89  21.90  21.97  22.04
         22.19  22.20  22.36  22.43  22.49  22.58  22.62  22.67  22.70  22.74
         22.82  23.11  23.18  23.22  23.56  23.56  23.66  23.68  23.97  24.01
         24.19  24.22  24.28  24.32  24.40  24.76  24.86  24.88  24.94  25.82
         25.82  26.04  26.10  26.27  26.44  26.46  26.58  27.01  27.09  27.43
         27.96  28.44  28.78  29.21  29.22  29.45  30.51  30.87  31.08  31.56
         32.17  32.24  32.29  32.42  32.46  32.85  33.02  33.28  33.38  33.42
         33.58  33.96  34.44  34.55  34.79  35.39  35.70  35.76  35.96  35.97
         36.11  36.16  36.36  36.39  36.48  36.86  36.92  36.99  37.09  37.47
         37.56  37.89  38.34  38.39  38.75  38.77  39.39  39.78  40.30  40.38
         40.68  40.95  41.61  41.63  42.03  42.50  43.38  43.53  43.56  44.11
         44.34  44.49  44.51  44.55  45.13  45.19  45.40  45.58  45.63  45.91
         46.08  47.07  47.11  47.36  47.43  47.65  47.70  47.79  47.98  48.39
         48.49  48.50  48.68  49.68  49.71  49.84  49.95  50.21  50.38  50.48
         50.67  51.11  51.16  51.30  51.59  51.94  52.02  52.18  52.39  52.54
         52.92  53.32  53.43  53.44  53.58  53.73  53.80  54.58  54.62  54.88
         55.08  55.49  55.52  55.70  55.85  56.09  56.44  56.59  56.67  57.37
         57.50  57.68  57.73  58.10  58.13  58.24  58.28  58.80  58.96  59.09
         59.17  59.29  59.61  59.65  59.79  60.42  60.68  60.84  60.92  60.99
         61.37  61.44  61.64  61.83  62.29  62.42  62.51  63.43  63.47  63.49
         64.12  64.17  64.20  64.23  64.43  64.98  65.20  66.42  67.70  68.57
         68.77  69.64  70.05  71.46  71.84  72.33  72.46  73.18  73.46  73.79
         73.94  74.22  74.26  74.59  74.66  74.91  75.26  75.55  75.55  75.98
         76.05  76.18  76.23  76.55  76.66  77.09  78.37  78.54  78.83  79.13
         79.19  79.26  79.90  80.08  80.56  81.09  81.48  81.64  81.87  82.28
         83.09  83.09  83.10  83.18  83.26  84.11  84.26  84.40  84.95  86.24
         86.84  88.36  88.52  89.40  89.51  90.62  92.82  94.43  95.15  95.37
         95.48  96.40  97.31  98.30  98.85 100.17 102.40 103.20 104.65 105.08
        105.87 106.14 107.10 107.23 107.96 109.69 111.16 113.21 115.17 115.38
        120.12 120.45 121.39 121.46 124.21 125.43 128.12 130.46 132.01 132.24
        135.06 135.67 138.05 140.12 141.04 141.26 141.71 143.45 144.72 145.16
        147.50 148.84 152.86 160.64 162.11 165.78 166.42 168.95 169.11 170.40
        173.39 173.44 178.62 180.28 180.37 183.69
siesta: Fermi energy =      -3.348304 eV

siesta: Program's energy decomposition (eV):
siesta: Ebs     =     -2133.263030
siesta: Eions   =      8622.831464
siesta: Ena     =       860.478311
siesta: Ekin    =      4809.439792
siesta: Enl     =     -1508.863988
siesta: Eso     =         0.000000
siesta: Eldau   =         0.000000
siesta: DEna    =      -100.472165
siesta: DUscf   =        10.434186
siesta: DUext   =         0.000000
siesta: Enegf   =         0.000000
siesta: Exc     =     -2071.073583
siesta: eta*DQ  =         0.000000
siesta: Emadel  =         0.000000
siesta: Emeta   =         0.000000
siesta: Emolmec =         0.000000
siesta: Ekinion =         0.000000
siesta: Eharris =     -6622.888912
siesta: Etot    =     -6622.888912
siesta: FreeEng =     -6622.889096

siesta: Final energy (eV):
siesta:  Band Struct. =   -2133.263030
siesta:       Kinetic =    4809.439792
siesta:       Hartree =   61747.342252
siesta:       Eldau   =       0.000000
siesta:       Eso     =       0.000000
siesta:    Ext. field =       0.000000
siesta:       Enegf   =       0.000000
siesta:   Exch.-corr. =   -2071.073583
siesta:  Ion-electron = -127742.557850
siesta:       Ion-ion =   56633.960478
siesta:       Ekinion =       0.000000
siesta:         Total =   -6622.888912
siesta:         Fermi =      -3.348304

siesta: Stress tensor (static) (eV/Ang**3):
siesta:    -0.000649   -0.000009    0.000000
siesta:    -0.000009    0.000011    0.000000
siesta:    -0.000000    0.000000    0.000003

siesta: Cell volume =       8970.000000 Ang**3

siesta: Pressure (static):
siesta:                Solid            Molecule  Units
siesta:           0.00000230          0.00000229  Ry/Bohr**3
siesta:           0.00021148          0.00021064  eV/Ang**3
siesta:           0.33883768          0.33748695  kBar
(Free)E+ p_basis*V_orbitals  =       -6608.936389
(Free)Eharris+ p_basis*V_orbitals  =       -6608.936389

siesta: Total spin polarization (Qup-Qdown) =    0.000000

siesta: Electric dipole (a.u.)  =    0.000000    0.000032   -0.000000
siesta: Electric dipole (Debye) =    0.000000    0.000080   -0.000000

Hirshfeld Net Atomic Populations:
Atom #    Qatom  Species
     1    0.021  H.mpn               
     2    0.004  C.mpn               
     3    0.022  H.mpn               
     4   -0.031  C.mpn               
     5    0.005  C.mpn               
     6    0.000  C.mpn               
     7    0.001  C.mpn               
     8   -0.000  C.mpn               
     9    0.026  H.mpn               
    10   -0.030  C.mpn               
    11    0.007  C.mpn               
    12    0.001  C.mpn               
    13    0.000  C.mpn               
    14   -0.000  C.mpn               
    15   -0.000  C.mpn               
    16   -0.001  C.mpn               
    17   -0.001  C.mpn               
    18    0.006  C.mpn               
    19    0.024  H.mpn               
    20   -0.026  C.mpn               
    21   -0.028  C.mpn               
    22    0.002  C.mpn               
    23    0.000  C.mpn               
    24   -0.000  C.mpn               
    25   -0.001  C.mpn               
    26   -0.001  C.mpn               
    27   -0.000  C.mpn               
    28    0.000  C.mpn               
    29    0.002  C.mpn               
    30   -0.028  C.mpn               
    31   -0.026  C.mpn               
    32    0.024  H.mpn               
    33    0.006  C.mpn               
    34   -0.001  C.mpn               
    35   -0.001  C.mpn               
    36   -0.000  C.mpn               
    37   -0.000  C.mpn               
    38    0.000  C.mpn               
    39    0.001  C.mpn               
    40    0.007  C.mpn               
    41   -0.030  C.mpn               
    42    0.026  H.mpn               
    43   -0.000  C.mpn               
    44    0.001  C.mpn               
    45    0.000  C.mpn               
    46    0.005  C.mpn               
    47   -0.031  C.mpn               
    48    0.022  H.mpn               
    49    0.004  C.mpn               
    50    0.021  H.mpn               

Voronoi Net Atomic Populations:
Atom #    Qatom  Species
     1    0.000  H.mpn               
     2    0.003  C.mpn               
     3   -0.001  H.mpn               
     4   -0.008  C.mpn               
     5    0.005  C.mpn               
     6   -0.001  C.mpn               
     7   -0.000  C.mpn               
     8   -0.002  C.mpn               
     9    0.001  H.mpn               
    10   -0.006  C.mpn               
    11    0.005  C.mpn               
    12    0.003  C.mpn               
    13    0.002  C.mpn               
    14    0.000  C.mpn               
    15    0.002  C.mpn               
    16    0.000  C.mpn               
    17   -0.003  C.mpn               
    18   -0.001  C.mpn               
    19    0.005  H.mpn               
    20   -0.001  C.mpn               
    21   -0.006  C.mpn               
    22    0.000  C.mpn               
    23    0.004  C.mpn               
    24   -0.001  C.mpn               
    25    0.000  C.mpn               
    26   -0.001  C.mpn               
    27    0.001  C.mpn               
    28    0.003  C.mpn               
    29    0.004  C.mpn               
    30   -0.007  C.mpn               
    31   -0.001  C.mpn               
    32    0.003  H.mpn               
    33   -0.002  C.mpn               
    34   -0.002  C.mpn               
    35   -0.002  C.mpn               
    36   -0.003  C.mpn               
    37    0.002  C.mpn               
    38    0.001  C.mpn               
    39    0.003  C.mpn               
    40    0.007  C.mpn               
    41   -0.007  C.mpn               
    42    0.001  H.mpn               
    43   -0.000  C.mpn               
    44   -0.000  C.mpn               
    45   -0.002  C.mpn               
    46    0.003  C.mpn               
    47   -0.008  C.mpn               
    48   -0.001  H.mpn               
    49    0.005  C.mpn               
    50   -0.000  H.mpn               
>> End of run:  16-APR-2018  23:13:31
Job completed
Job completed
