Siesta Version  : siesta-4.1--852
Architecture    : unknown
Compiler version: ifort (IFORT) 17.0.4 20170411
Compiler flags  : mpiifort -O1 -xHost -mp1 -fpp -ftz -I/scicomp/easybuild/CentOS/7.3.1611/Hasweell/software/imkl/2017.3.196-iimpi-2017b/mkl/include -I/scratch/scicomp/easybuild/CentOS/7.3.1611/Haswell/software/netCDF-Fortran/4.4.4-intel-2017b/include -I/scratch/scicomp/easybuild/CentOS/7.3.1611/Haswell/software/netCDF/4.4.1.1-intel-2017b/include
PP flags        :  -DFC_HAVE_ABORT -DMPI -DCDF -DNCDF -DNCDF_4 -DGRID_DP -DNCDF_PARALLEL
Libraries       : libncdf.a libfdict.a -L/scratch/scicomp/easybuild/CentOS/7.3.1611/Haswell/sofftware/netCDF-Fortran/4.4.4-intel-2017b/lib -lnetcdff -L/scratch/scicomp/easybuild/CentOS/7.3.1611/Haswell/software/cURL/7.56.0-GCCcore-6.4.0/lib -lcurl -L/scratch/scicomp/easybuild/CentOS/7.3.1611/Haswell/software/netCDF/4.4.1.1-intel-2017b/lib64 -lnetcdf -L/scratch/scicomp/easybuild/CentOS/7.3.1611/Haswell/software/HDF5/1.10.1-intel-2017b/lib -lhdf5hl_fortran -lhdf5_fortran -lhdf5_hl -lhdf5 -L/scratch/scicomp/easybuild/CentOS/7.3.1611/Haswell/software/Szip/2.1.1-GCCcore-6.4.0/lib -lsz -L/scratch/scicomp/easybuild/CentOS/7.3.1611/Haswell/software/zlib/1.2.11-GCCcore-6.4.0/lib -lz /scicomp/easybuild/CentOS/7.3.1611/Haswell/software/imkl/2017.3.196-iimpi-2017b/mkl/lib/intel64/libmkl_scalapack_lp64.a -Wl,--start-group /scicomp/easybuild/CentOS/7.3.1611/Haswell/software/imkl/2017.3.196-iimpi-2017b/mkl/lib/intel64/libmkl_intel_lp64.a /scicomp/easybuild/CentOS/7.3.1611/Haswell/software/imkl/2017.3.196-iimpi-2017b/mkl/lib/intel64/libmkl_sequential.a /scicomp/easybuild/CentOS/7.3.1611/Haswell/software/imkl/2017.3.196-iimpi-2017b/mkl/lib/intel64/libmkl_core.a /scicomp/easybuild/CentOS/7.3.1611/Haswell/software/imkl/2017.3.196-iimpi-2017b/mkl/lib/intel64/libmkl_blacs_intelmpi_lp64.a -Wl,--end-group -lpthread -lm -ldl
PARALLEL version
NetCDF support
NetCDF-4 support
NetCDF-4 MPI-IO support

* Running on 24 nodes in parallel
>> Start of run:  16-APR-2018  16:05:52

                           ***********************       
                           *  WELCOME TO SIESTA  *       
                           ***********************       

reinit: Reading from standard input
reinit: Dumped input in INPUT_TMP.44417
************************** Dump of input data file ****************************
SystemTitle molecule
SystemLabel molecule
SolutionMethod     diagon
TS.HS.Save         true
MD.TypeOfRun  CG
MD.TypeOfRun  Broyden
MD.Broyden.Cycle.On.Maxit F
MD.NumCGsteps  1000
MD.MaxForceTol 0.002 eV/Ang
Diag.ParallelOverK true
%block kgrid_Monkhorst_Pack
 100    0    0    0.0
  0    1    0    0.0
  0    0    1    0.0
%endblock kgrid_Monkhorst_Pack
MaxSCFIterations      3000
SCFMustConverge       true
DM.Tolerance          1.d-5
DM.UseSaveDM          true
DM.NumberPulay	      7
DM.MixingWeight       0.1
MD.UseSaveXV          true
XC.functional         LDA
XC.authors     	      CA
MeshCutoff            400. Ry
PAO.BasisSize   DZP
PAO.BasisType   split
%block ChemicalSpeciesLabel
    1   1 H.ca
    2   6 C.ca2
%endblock ChemicalSpeciesLabel
%include STRUCT.fdf
SpinPolarized   true
#FixSpin  true
#Spin.Fix true
#Spin.Total 0
#TotalSpin  0
%block DM.InitSpin
41   1.
10  -1.
%endblock DM.InitSpin
WriteMullikenPop 1
WriteHirshfeldPop true
WriteVoronoiPop true
WriteEigenvalues true
WriteWaveFunctions true
************************** End of input data file *****************************

reinit: -----------------------------------------------------------------------
reinit: System Name: 
reinit: -----------------------------------------------------------------------
reinit: System Label: molecule
reinit: -----------------------------------------------------------------------

initatom: Reading input for the pseudopotentials and atomic orbitals ----------
Species number:   1 Atomic number:    1 Label: H.ca
Species number:   2 Atomic number:    6 Label: C.ca2
 
Ground state valence configuration:   1s01
Reading pseudopotential information in formatted form from H.ca.psf

Pseudopotential generated from a relativistic atomic calculation

Valence configuration for pseudopotential generation:
1s( 1.00) rc: 1.31
2p( 0.00) rc: 1.31
3d( 0.00) rc: 0.37
4f( 0.00) rc: 1.31
Ground state valence configuration:   2s02  2p02
Reading pseudopotential information in formatted form from C.ca2.psf

Pseudopotential generated from a relativistic atomic calculation

Valence configuration for pseudopotential generation:
2s( 2.00) rc: 1.54
2p( 2.00) rc: 1.54
3d( 0.00) rc: 1.54
4f( 0.00) rc: 1.54
For H.ca, standard SIESTA heuristics set lmxkb to 2
 (one more than the basis l, including polarization orbitals).
Use PS.lmax or PS.KBprojectors blocks to override.
For C.ca2, standard SIESTA heuristics set lmxkb to 3
 (one more than the basis l, including polarization orbitals).
Use PS.lmax or PS.KBprojectors blocks to override.

<basis_specs>
===============================================================================
H.ca                 Z=   1    Mass=  1.0100        Charge= 0.17977+309
Lmxo=0 Lmxkb= 2    BasisType=split      Semic=F
L=0  Nsemic=0  Cnfigmx=1
          n=1  nzeta=2  polorb=1
            splnorm:   0.15000    
               vcte:    0.0000    
               rinn:    0.0000    
               qcoe:    0.0000    
               qyuk:    0.0000    
               qwid:   0.10000E-01
                rcs:    0.0000      0.0000    
            lambdas:    1.0000      1.0000    
-------------------------------------------------------------------------------
L=0  Nkbl=1  erefs: 0.17977+309
L=1  Nkbl=1  erefs: 0.17977+309
L=2  Nkbl=1  erefs: 0.17977+309
===============================================================================
</basis_specs>

atom: Called for H.ca                  (Z =   1)

read_vps: Pseudopotential generation method:
read_vps: ATM3.3.2  Troullier-Martins                       
Total valence charge:    1.00000

xc_check: Exchange-correlation functional:
xc_check: Ceperley-Alder
V l=0 = -2*Zval/r beyond r=  1.2977
V l=1 = -2*Zval/r beyond r=  1.2815
V l=2 = -2*Zval/r beyond r=  1.1307
All V_l potentials equal beyond r=  1.2977
This should be close to max(r_c) in ps generation
All pots = -2*Zval/r beyond r=  1.2977

VLOCAL1: 99.0% of the norm of Vloc inside     25.776 Ry
VLOCAL1: 99.9% of the norm of Vloc inside     58.745 Ry
atom: Maximum radius for 4*pi*r*r*local-pseudopot. charge    1.52711
atom: Maximum radius for r*vlocal+2*Zval:    1.28155
GHOST: No ghost state for L =  0
GHOST: No ghost state for L =  1
GHOST: No ghost state for L =  2

KBgen: Kleinman-Bylander projectors: 
   l= 0   rc=  1.452513   el= -0.467311   Ekb= -1.940806   kbcos= -0.353010
   l= 1   rc=  1.752576   el=  0.001430   Ekb= -0.484365   kbcos= -0.024070
   l= 2   rc=  1.774652   el=  0.002365   Ekb= -0.503986   kbcos= -0.001615

KBgen: Total number of  Kleinman-Bylander projectors:    9
atom: -------------------------------------------------------------------------

atom: SANKEY-TYPE ORBITALS:
atom: Selected multiple-zeta basis: split     

SPLIT: Orbitals with angular momentum L= 0

SPLIT: Basis orbitals for state 1s

SPLIT: PAO cut-off radius determined from an
SPLIT: energy shift=  0.020000 Ry

   izeta = 1
                 lambda =    1.000000
                     rc =    4.828263
                 energy =   -0.449360
                kinetic =    0.925772
    potential(screened) =   -1.375132
       potential(ionic) =   -1.911259

   izeta = 2
                 rmatch =    3.854947
              splitnorm =    0.150000
                 energy =   -0.336131
                kinetic =    1.498125
    potential(screened) =   -1.834256
       potential(ionic) =   -2.406171

POLgen: Perturbative polarization orbital with L=  1

POLgen: Polarization orbital for state 1s

   izeta = 1
                     rc =    4.828263
                 energy =    0.707058
                kinetic =    1.398648
    potential(screened) =   -0.691590
       potential(ionic) =   -1.171958
atom: Total number of Sankey-type orbitals:  5

atm_pop: Valence configuration (for local Pseudopot. screening):
 1s( 1.00)                                                            
Vna: chval, zval:    1.00000   1.00000

Vna:  Cut-off radius for the neutral-atom potential:   4.828263

atom: _________________________________________________________________________

<basis_specs>
===============================================================================
C.ca2                Z=   6    Mass=  12.010        Charge= 0.17977+309
Lmxo=1 Lmxkb= 3    BasisType=split      Semic=F
L=0  Nsemic=0  Cnfigmx=2
          n=1  nzeta=2  polorb=0
            splnorm:   0.15000    
               vcte:    0.0000    
               rinn:    0.0000    
               qcoe:    0.0000    
               qyuk:    0.0000    
               qwid:   0.10000E-01
                rcs:    0.0000      0.0000    
            lambdas:    1.0000      1.0000    
L=1  Nsemic=0  Cnfigmx=2
          n=1  nzeta=2  polorb=1
            splnorm:   0.15000    
               vcte:    0.0000    
               rinn:    0.0000    
               qcoe:    0.0000    
               qyuk:    0.0000    
               qwid:   0.10000E-01
                rcs:    0.0000      0.0000    
            lambdas:    1.0000      1.0000    
-------------------------------------------------------------------------------
L=0  Nkbl=1  erefs: 0.17977+309
L=1  Nkbl=1  erefs: 0.17977+309
L=2  Nkbl=1  erefs: 0.17977+309
L=3  Nkbl=1  erefs: 0.17977+309
===============================================================================
</basis_specs>

atom: Called for C.ca2                 (Z =   6)

read_vps: Pseudopotential generation method:
read_vps: ATM3.3.2  Troullier-Martins                       
Total valence charge:    4.00000

xc_check: Exchange-correlation functional:
xc_check: Ceperley-Alder
V l=0 = -2*Zval/r beyond r=  1.5227
V l=1 = -2*Zval/r beyond r=  1.5227
V l=2 = -2*Zval/r beyond r=  1.5227
V l=3 = -2*Zval/r beyond r=  1.5038
All V_l potentials equal beyond r=  1.5227
This should be close to max(r_c) in ps generation
All pots = -2*Zval/r beyond r=  1.5227

VLOCAL1: 99.0% of the norm of Vloc inside     18.722 Ry
VLOCAL1: 99.9% of the norm of Vloc inside     42.668 Ry
atom: Maximum radius for 4*pi*r*r*local-pseudopot. charge    1.83678
atom: Maximum radius for r*vlocal+2*Zval:    1.58088
GHOST: No ghost state for L =  0
GHOST: No ghost state for L =  1
GHOST: No ghost state for L =  2
GHOST: No ghost state for L =  3

KBgen: Kleinman-Bylander projectors: 
   l= 0   rc=  1.769164   el= -1.002383   Ekb=  4.944706   kbcos=  0.320005
   l= 1   rc=  1.769164   el= -0.398438   Ekb= -4.111874   kbcos= -0.367023
   l= 2   rc=  2.107589   el=  0.002326   Ekb= -1.050436   kbcos= -0.009341
   l= 3   rc=  2.358593   el=  0.003420   Ekb= -0.444500   kbcos= -0.001214

KBgen: Total number of  Kleinman-Bylander projectors:   16
atom: -------------------------------------------------------------------------

atom: SANKEY-TYPE ORBITALS:
atom: Selected multiple-zeta basis: split     

SPLIT: Orbitals with angular momentum L= 0

SPLIT: Basis orbitals for state 2s

SPLIT: PAO cut-off radius determined from an
SPLIT: energy shift=  0.020000 Ry

   izeta = 1
                 lambda =    1.000000
                     rc =    4.191849
                 energy =   -0.984359
                kinetic =    0.881234
    potential(screened) =   -1.865594
       potential(ionic) =   -5.477335

   izeta = 2
                 rmatch =    3.431921
              splitnorm =    0.150000
                 energy =   -0.853663
                kinetic =    1.298382
    potential(screened) =   -2.152045
       potential(ionic) =   -5.997528

SPLIT: Orbitals with angular momentum L= 1

SPLIT: Basis orbitals for state 2p

SPLIT: PAO cut-off radius determined from an
SPLIT: energy shift=  0.020000 Ry

   izeta = 1
                 lambda =    1.000000
                     rc =    4.870301
                 energy =   -0.378923
                kinetic =    2.540340
    potential(screened) =   -2.919263
       potential(ionic) =   -6.428536

   izeta = 2
                 rmatch =    3.475094
              splitnorm =    0.150000
                 energy =   -0.214881
                kinetic =    3.815219
    potential(screened) =   -4.030100
       potential(ionic) =   -7.921348

POLgen: Perturbative polarization orbital with L=  2

POLgen: Polarization orbital for state 2p

   izeta = 1
                     rc =    4.870301
                 energy =    1.281120
                kinetic =    2.631157
    potential(screened) =   -1.350037
       potential(ionic) =   -4.295491
atom: Total number of Sankey-type orbitals: 13

atm_pop: Valence configuration (for local Pseudopot. screening):
 2s( 2.00)                                                            
 2p( 2.00)                                                            
Vna: chval, zval:    4.00000   4.00000

Vna:  Cut-off radius for the neutral-atom potential:   4.870301

atom: _________________________________________________________________________

prinput: Basis input ----------------------------------------------------------

PAO.BasisType split     

%block ChemicalSpeciesLabel
    1    1 H.ca                    # Species index, atomic number, species label
    2    6 C.ca2                   # Species index, atomic number, species label
%endblock ChemicalSpeciesLabel

%block PAO.Basis                 # Define Basis set
H.ca                  1                    # Species label, number of l-shells
 n=1   0   2 P   1                   # n, l, Nzeta, Polarization, NzetaPol
   4.828      3.855   
   1.000      1.000   
C.ca2                 2                    # Species label, number of l-shells
 n=2   0   2                         # n, l, Nzeta 
   4.192      3.432   
   1.000      1.000   
 n=2   1   2 P   1                   # n, l, Nzeta, Polarization, NzetaPol
   4.870      3.475   
   1.000      1.000   
%endblock PAO.Basis

prinput: ----------------------------------------------------------------------

Dumping basis to NetCDF file H.ca.ion.nc
Dumping basis to NetCDF file C.ca2.ion.nc
coor:   Atomic-coordinates input format  =     Cartesian coordinates
coor:                                          (in Angstroms)

siesta: WARNING: XV file not found

siesta: Atomic coordinates (Bohr) and species
siesta:     22.00531  11.48356  18.89727  1        1
siesta:     20.57321  15.30934  18.89727  2        2
siesta:     26.47070  10.43786  18.89727  1        3
siesta:     22.45899  13.51800  18.89727  2        4
siesta:     25.02274  14.25970  18.89727  2        5
siesta:     21.17419  17.87855  18.89727  2        6
siesta:     23.67601  18.71580  18.89727  2        7
siesta:     22.46879  23.24475  18.89727  2        8
siesta:     30.92105   9.33392  18.89727  1        9
siesta:     26.95941  12.46695  18.89727  2       10
siesta:     29.50018  13.18018  18.89727  2       11
siesta:     25.64617  16.89246  18.89727  2       12
siesta:     28.21034  17.65629  18.89727  2       13
siesta:     24.32503  21.36886  18.89727  2       14
siesta:     26.90194  22.12741  18.89727  2       15
siesta:     23.07985  25.77843  18.89727  2       16
siesta:     25.58714  26.60198  18.89727  2       17
siesta:     24.37398  31.14484  18.89727  2       18
siesta:     23.49848  35.13808  18.89727  1       19
siesta:     31.44412  11.35160  18.89727  2       20
siesta:     33.93895  12.08713  18.89727  2       21
siesta:     30.14495  15.80783  18.89727  2       22
siesta:     32.72940  16.53343  18.89727  2       23
siesta:     28.84309  20.28192  18.89727  2       24
siesta:     31.41210  21.03965  18.89727  2       25
siesta:     27.53499  24.75264  18.89727  2       26
siesta:     30.10418  25.51014  18.89727  2       27
siesta:     26.21888  29.25910  18.89727  2       28
siesta:     28.80359  29.98422  18.89727  2       29
siesta:     25.01027  33.70553  18.89727  2       30
siesta:     27.50514  34.44076  18.89727  2       31
siesta:     35.45121  10.65501  18.89727  1       32
siesta:     34.57463  14.64795  18.89727  2       33
siesta:     33.36028  19.19054  18.89727  2       34
siesta:     35.86743  20.01405  18.89727  2       35
siesta:     32.04531  23.66474  18.89727  2       36
siesta:     34.62212  24.42332  18.89727  2       37
siesta:     30.73773  28.13558  18.89727  2       38
siesta:     33.30206  28.89939  18.89727  2       39
siesta:     29.44872  32.61176  18.89727  2       40
siesta:     31.98955  33.32480  18.89727  2       41
siesta:     28.02801  36.45859  18.89727  1       42
siesta:     36.47843  22.54757  18.89727  2       43
siesta:     35.27185  27.07601  18.89727  2       44
siesta:     37.77381  27.91289  18.89727  2       45
siesta:     33.92613  31.53205  18.89727  2       46
siesta:     36.48982  32.27362  18.89727  2       47
siesta:     32.47864  35.35386  18.89727  1       48
siesta:     38.37530  30.48199  18.89727  2       49
siesta:     36.94363  34.30804  18.89727  1       50

siesta: System type = chain     

initatomlists: Number of atoms, orbitals, and projectors:     50   586   744

siesta: ******************** Simulation parameters ****************************
siesta:
siesta: The following are some of the parameters of the simulation.
siesta: A complete list of the parameters used, including default values,
siesta: can be found in file out.fdf
siesta:
redata: Spin configuration                          = collinear
redata: Number of spin components                   = 2
redata: Time-Reversal Symmetry                      = T
redata: Spin-spiral                                 = F
redata: Long output                                 =   F
redata: Number of Atomic Species                    =        2
redata: Charge density info will appear in .RHO file
redata: Write Mulliken Pop.                         = Atomic and Orbital charges
redata: Mesh Cutoff                                 =   400.0000 Ry
redata: Net charge of the system                    =     0.0000 |e|
redata: Min. number of SCF Iter                     =        0
redata: Max. number of SCF Iter                     =     3000
redata: SCF convergence failure will abort job
redata: SCF mix quantity                            = Hamiltonian
redata: Mix DM or H after convergence               =   F
redata: Recompute H after scf cycle                 =   F
redata: Mix DM in first SCF step                    =   T
redata: Write Pulay info on disk                    =   F
redata: New DM Mixing Weight                        =     0.1000
redata: New DM Occupancy tolerance                  = 0.000000000001
redata: No kicks to SCF
redata: DM Mixing Weight for Kicks                  =     0.5000
redata: Require Harris convergence for SCF          =   F
redata: Harris energy tolerance for SCF             =     0.000100 eV
redata: Require DM convergence for SCF              =   T
redata: DM tolerance for SCF                        =     0.000010
redata: Require EDM convergence for SCF             =   F
redata: EDM tolerance for SCF                       =     0.001000 eV
redata: Require H convergence for SCF               =   T
redata: Hamiltonian tolerance for SCF               =     0.001000 eV
redata: Require (free) Energy convergence for SCF   =   F
redata: (free) Energy tolerance for SCF             =     0.000100 eV
redata: Antiferro initial spin density              =   F
redata: Using Saved Data (generic)                  =   F
redata: Use continuation files for DM               =   T
redata: Neglect nonoverlap interactions             =   F
redata: Method of Calculation                       = Diagonalization
redata: Electronic Temperature                      =   299.9869 K
redata: Fix the spin of the system                  =   F
redata: Dynamics option                             = CG coord. optimization
redata: Variable cell                               =   F
redata: Use continuation files for CG               =   F
redata: Max atomic displ per move                   =     0.1058 Ang
redata: Maximum number of CG moves                  =     1000
redata: Force tolerance                             =     0.0020 eV/Ang
mix.SCF: Pulay mixing                            = Pulay
mix.SCF:    Variant                              = stable
mix.SCF:    History steps                        = 7
mix.SCF:    Linear mixing weight                 =     0.100000
mix.SCF:    Mixing weight                        =     0.100000
mix.SCF:    SVD condition                        = 0.1000E-07
mix.SCF: Spin-component mixing                   all
redata: Save all siesta data in one NC              =   F
redata: ***********************************************************************

%block SCF.Mixers
  Pulay
%endblock SCF.Mixers

%block SCF.Mixer.Pulay
  # Mixing method
  method pulay
  variant stable

  # Mixing options
  weight 0.1000
  weight.linear 0.1000
  history 7
%endblock SCF.Mixer.Pulay
 
DM_history_depth set to one: no extrapolation allowed by default for geometry relaxation
Size of DM history Fstack: 1
Total number of electrons:   176.000000
Total ionic charge:   176.000000

* ProcessorY, Blocksize:    4  24


* Orbital distribution balance (max,min):    34    24

k-point displ. along   1 input, could be:     0.00    0.50
 Kpoints in:           51 . Kpoints trimmed:           51

siesta: k-grid: Number of k-points =    51
siesta: k-grid: Cutoff (effective) =    10.000 Ang
siesta: k-grid: Supercell and displacements
siesta: k-grid:  100   0   0      0.000
siesta: k-grid:    0   1   0      0.000
siesta: k-grid:    0   0   1      0.000
 
diag: Algorithm                                     = D&C
diag: Parallel over k                               =   T
diag: Use parallel 2D distribution                  =   T
diag: Parallel block-size                           = 24
diag: Parallel distribution                         =     4 x     6
diag: Used triangular part                          = Lower
diag: Absolute tolerance                            =  0.100E-15
diag: Orthogonalization factor                      =  0.100E-05
diag: Memory factor                                 =  1.0000

superc: Internal auxiliary supercell:     3 x     1 x     1  =       3
superc: Number of atoms, orbitals, and projectors:    150   1758   2232
 
 
ts: **************************************************************
ts: Save H and S matrices                           =    T
ts: Save DM and EDM matrices                        =    F
ts: Fix Hartree potential                           =    F
ts: Only save the overlap matrix S                  =    F
ts: **************************************************************
 
************************ Begin: TS CHECKS AND WARNINGS ************************
************************ End: TS CHECKS AND WARNINGS **************************


                     ====================================
                        Begin CG opt. move =      0
                     ====================================

superc: Internal auxiliary supercell:     3 x     1 x     1  =       3
superc: Number of atoms, orbitals, and projectors:    150   1758   2232

outcell: Unit cell vectors (Ang):
        8.870000    0.000000    0.000000
        0.000000   50.000000    0.000000
        0.000000    0.000000   20.000000

outcell: Cell vector modules (Ang)   :    8.870000   50.000000   20.000000
outcell: Cell angles (23,13,12) (deg):     90.0000     90.0000     90.0000
outcell: Cell volume (Ang**3)        :   8870.0000
<dSpData1D:S at geom step 0
  <sparsity:sparsity for geom step 0
    nrows_g=586 nrows=34 sparsity=.0442 nnzs=15187, refcount: 7>
  <dData1D:(new from dSpData1D) n=15187, refcount: 1>
refcount: 1>
new_DM -- step:     1
Initializing Density Matrix...
 
Attempting to read DM from file... Failed...
DM filled with atomic data (user-defined):
<dSpData2D:DM initialized from atoms
  <sparsity:sparsity for geom step 0
    nrows_g=586 nrows=34 sparsity=.0442 nnzs=15187, refcount: 8>
  <dData2D:DM n=15187 m=2, refcount: 1>
refcount: 1>

initDM: Initial spin polarization (Qup-Qdown) =    0.000000

No. of atoms with KB's overlaping orbs in proc 0. Max # of overlaps:      40     217
New grid distribution:   1
           1       1:   54    1:   80    1:   21
           2       1:   54    1:   80   22:   42
           3       1:   54    1:   80   43:   63
           4       1:   54    1:   80   64:   84
           5       1:   54    1:   80   85:  105
           6       1:   54    1:   80  106:  125
           7       1:   54   81:  160    1:   21
           8       1:   54   81:  160   22:   42
           9       1:   54   81:  160   43:   63
          10       1:   54   81:  160   64:   84
          11       1:   54   81:  160   85:  105
          12       1:   54   81:  160  106:  125
          13       1:   54  161:  240    1:   21
          14       1:   54  161:  240   22:   42
          15       1:   54  161:  240   43:   63
          16       1:   54  161:  240   64:   84
          17       1:   54  161:  240   85:  105
          18       1:   54  161:  240  106:  125
          19       1:   54  241:  320    1:   21
          20       1:   54  241:  320   22:   42
          21       1:   54  241:  320   43:   63
          22       1:   54  241:  320   64:   84
          23       1:   54  241:  320   85:  105
          24       1:   54  241:  320  106:  125

InitMesh: MESH =   108 x   640 x   250 =    17280000
InitMesh: (bp) =    54 x   320 x   125 =     2160000
InitMesh: Mesh cutoff (required, used) =   400.000   409.734 Ry
ExtMesh (bp) on 0 =   118 x   148 x    89 =     1554296
New grid distribution:   2
           1       1:   54    1:   45    1:   63
           2       1:   54   66:   78    1:   59
           3       1:   54   59:   65    1:   63
           4       1:   54   46:   58   59:   63
           5       1:   54    1:   45   64:  125
           6       1:   54   66:   78   60:   63
           7       1:   54   86:   98    1:   59
           8       1:   54   79:   85    1:   63
           9       1:   54   66:   78   68:  125
          10       1:   54  106:  320   64:   67
          11       1:   54   79:   85   64:  125
          12       1:   54   46:   58   64:   67
          13       1:   54  105:  320    1:   58
          14       1:   54   86:   98   68:  125
          15       1:   54   59:   65   64:  125
          16       1:   54   86:   98   60:   63
          17       1:   54  106:  320   68:  125
          18       1:   54   46:   58    1:   58
          19       1:   54   99:  105   64:  125
          20       1:   54   86:   98   64:   67
          21       1:   54  105:  320   59:   63
          22       1:   54   46:   58   68:  125
          23       1:   54   99:  104    1:   63
          24       1:   54   66:   78   64:   67
New grid distribution:   3
           1       1:   54    1:   32    1:   63
           2       1:   54   61:   79    1:   55
           3       1:   54   52:   60    1:   63
           4       1:   54   33:   51   64:   71
           5       1:   54    1:   32   64:  125
           6       1:   54   33:   51    1:   55
           7       1:   54   80:   89    1:   63
           8       1:   54   61:   79   56:   63
           9       1:   54   61:   79   72:  125
          10       1:   54  117:  320   64:   70
          11       1:   54  108:  116    1:   63
          12       1:   54   33:   51   56:   63
          13       1:   54  117:  320    1:   56
          14       1:   54   89:  107   72:  125
          15       1:   54   80:   88   64:  125
          16       1:   54   89:  107   64:   71
          17       1:   54  117:  320   71:  125
          18       1:   54   33:   51   72:  125
          19       1:   54   52:   60   64:  125
          20       1:   54   61:   79   64:   71
          21       1:   54  117:  320   57:   63
          22       1:   54   90:  107    1:   55
          23       1:   54  108:  116   64:  125
          24       1:   54   90:  107   56:   63
Setting up quadratic distribution...
ExtMesh (bp) on 0 =   118 x   113 x   131 =     1746754
PhiOnMesh: Number of (b)points on node 0 =               153090
PhiOnMesh: nlist on node 0 =               540890

stepf: Fermi-Dirac step function

siesta: Program's energy decomposition (eV):
siesta: Ebs     =     -2021.443077
siesta: Eions   =     10885.044575
siesta: Ena     =      2282.423556
siesta: Ekin    =      4870.251757
siesta: Enl     =      -651.374268
siesta: Eso     =         0.000000
siesta: Eldau   =         0.000000
siesta: DEna    =      -197.977791
siesta: DUscf   =        20.065879
siesta: DUext   =         0.000000
siesta: Enegf   =         0.000000
siesta: Exc     =     -2078.066531
siesta: eta*DQ  =         0.000000
siesta: Emadel  =         0.000000
siesta: Emeta   =         0.000000
siesta: Emolmec =         0.000000
siesta: Ekinion =         0.000000
siesta: Eharris =     -6645.330219
siesta: Etot    =     -6639.721973
siesta: FreeEng =     -6639.722678

        iscf     Eharris(eV)        E_KS(eV)     FreeEng(eV)     dDmax    Ef(eV) dHmax(eV)
   scf:    1    -6645.330219    -6639.721973    -6639.722678  0.968281 -5.452519  5.607752
timer: Routine,Calls,Time,% = IterSCF        1       7.477  68.22
   scf:    2    -6642.096169    -6640.960389    -6640.961126  0.011667 -5.144568  4.404819
   scf:    3    -6644.282491    -6643.096012    -6643.097307  0.042676 -3.953812  1.807120
   scf:    4    -6643.572405    -6643.399228    -6643.400937  0.016596 -3.661040  0.504573
   scf:    5    -6643.487676    -6643.451266    -6643.453574  0.007011 -3.582281  0.248267
   scf:    6    -6643.456779    -6643.454176    -6643.456503  0.000952 -3.605446  0.213575
   scf:    7    -6643.467958    -6643.461935    -6643.464807  0.002389 -3.632283  0.100502
   scf:    8    -6643.464560    -6643.463186    -6643.466675  0.002472 -3.648839  0.077358
   scf:    9    -6643.463514    -6643.463399    -6643.466989  0.000636 -3.636239  0.048123
   scf:   10    -6643.463816    -6643.463520    -6643.467727  0.002027 -3.640439  0.023547
   scf:   11    -6643.463428    -6643.463471    -6643.467821  0.000448 -3.640668  0.018639
   scf:   12    -6643.463374    -6643.463420    -6643.467879  0.000330 -3.640867  0.015052
   scf:   13    -6643.463097    -6643.463246    -6643.468017  0.000853 -3.640896  0.009348
   scf:   14    -6643.462769    -6643.462990    -6643.468128  0.000941 -3.640863  0.006317
   scf:   15    -6643.462812    -6643.462900    -6643.468156  0.000290 -3.640926  0.005658
   scf:   16    -6643.462617    -6643.462753    -6643.468192  0.000428 -3.641069  0.005120
   scf:   17    -6643.462379    -6643.462559    -6643.468232  0.000542 -3.641147  0.004335
   scf:   18    -6643.462317    -6643.462436    -6643.468253  0.000340 -3.641170  0.003623
   scf:   19    -6643.461765    -6643.462082    -6643.468289  0.000923 -3.641212  0.002711
   scf:   20    -6643.461664    -6643.461866    -6643.468301  0.000532 -3.641208  0.002151
   scf:   21    -6643.461719    -6643.461792    -6643.468304  0.000180 -3.641206  0.001667
   scf:   22    -6643.461391    -6643.461585    -6643.468309  0.000506 -3.641219  0.000803
   scf:   23    -6643.461498    -6643.461541    -6643.468309  0.000105 -3.641235  0.000611
   scf:   24    -6643.461484    -6643.461512    -6643.468309  0.000071 -3.641253  0.000384
   scf:   25    -6643.461554    -6643.461533    -6643.468310  0.000059 -3.641251  0.000212
   scf:   26    -6643.461539    -6643.461536    -6643.468310  0.000010 -3.641250  0.000139
   scf:   27    -6643.461545    -6643.461540    -6643.468310  0.000013 -3.641252  0.000094
   scf:   28    -6643.461590    -6643.461565    -6643.468310  0.000061 -3.641256  0.000021
   scf:   29    -6643.461566    -6643.461566    -6643.468310  0.000000 -3.641256  0.000021

SCF Convergence by DM+H criterion
max |DM_out - DM_in|         :     0.0000004776
max |H_out - H_in|      (eV) :     0.0000210774
SCF cycle converged after 29 iterations

Using DM_out to compute the final energy and forces
No. of atoms with KB's overlaping orbs in proc 0. Max # of overlaps:      40     217

siesta: E_KS(eV) =            -6643.4616

siesta: E_KS - E_eggbox =     -6643.4616

siesta: Total spin polarization (Qup-Qdown) =   -0.000018

siesta: Atomic forces (eV/Ang):
----------------------------------------
   Tot    0.031155    0.007336   -0.000000
----------------------------------------
   Max    4.333492
   Res    0.981518    sqrt( Sum f_i^2 / 3N )
----------------------------------------
   Max    4.333492    constrained

Stress-tensor-Voigt (kbar):        0.98        1.55        0.00       -0.97        0.00        0.00
(Free)E + p*V (eV/cell)    -6648.1584
Target enthalpy (eV/cell)    -6643.4683
 
mulliken: Atomic and Orbital Populations:

mulliken: Spin UP 

Species: H.ca                
Atom  Qatom  Qorb
               1s      1s      1Ppy    1Ppz    1Ppx    
   1  0.623   0.405   0.161   0.025   0.018   0.014
   3  0.626   0.421   0.150   0.024   0.018   0.012
   9  0.625   0.421   0.148   0.024   0.018   0.013
  19  0.623   0.407   0.158   0.017   0.019   0.022
  32  0.623   0.407   0.158   0.017   0.019   0.022
  42  0.625   0.420   0.148   0.023   0.019   0.013
  48  0.625   0.419   0.149   0.024   0.020   0.012
  50  0.622   0.403   0.160   0.025   0.020   0.014

Species: C.ca2               
Atom  Qatom  Qorb
               2s      2s      2py     2pz     2px     2py     2pz     2px     
               2Pdxy   2Pdyz   2Pdz2   2Pdxz   2Pdx2-y2
   2  1.990   0.243   0.247   0.222   0.384   0.229   0.256   0.085   0.245
              0.022   0.016   0.002   0.014   0.025
   4  1.877   0.183   0.274   0.082   0.382   0.251   0.345   0.064   0.235
              0.017   0.005   0.001   0.016   0.022
   5  1.975   0.235   0.250   0.215   0.375   0.215   0.256   0.088   0.260
              0.024   0.015   0.002   0.016   0.025
   6  1.994   0.262   0.238   0.230   0.394   0.248   0.243   0.070   0.230
              0.025   0.015   0.002   0.014   0.021
   7  2.003   0.246   0.246   0.229   0.385   0.232   0.247   0.083   0.254
              0.024   0.015   0.001   0.016   0.024
   8  2.002   0.248   0.244   0.231   0.388   0.233   0.255   0.083   0.240
              0.023   0.017   0.001   0.014   0.024
  10  1.872   0.184   0.275   0.081   0.382   0.251   0.344   0.060   0.236
              0.017   0.005   0.001   0.016   0.021
  11  1.974   0.235   0.250   0.213   0.375   0.210   0.256   0.088   0.266
              0.024   0.014   0.002   0.016   0.025
  12  1.995   0.250   0.244   0.226   0.386   0.226   0.252   0.080   0.252
              0.024   0.015   0.002   0.016   0.024
  13  2.004   0.247   0.245   0.230   0.389   0.230   0.250   0.082   0.251
              0.023   0.015   0.002   0.016   0.024
  14  1.996   0.247   0.244   0.225   0.385   0.235   0.251   0.081   0.248
              0.023   0.016   0.002   0.016   0.024
  15  2.002   0.249   0.245   0.230   0.390   0.229   0.249   0.081   0.250
              0.023   0.015   0.002   0.015   0.024
  16  1.999   0.260   0.239   0.236   0.393   0.246   0.242   0.073   0.232
              0.024   0.016   0.001   0.015   0.022
  17  2.008   0.247   0.246   0.226   0.391   0.234   0.249   0.083   0.252
              0.024   0.015   0.001   0.016   0.024
  18  2.004   0.248   0.245   0.214   0.401   0.235   0.260   0.084   0.238
              0.023   0.016   0.002   0.015   0.024
  20  1.873   0.177   0.278   0.084   0.382   0.239   0.343   0.068   0.242
              0.018   0.004   0.001   0.016   0.021
  21  1.894   0.172   0.280   0.166   0.394   0.152   0.292   0.074   0.304
              0.024   0.010   0.001   0.009   0.015
  22  1.991   0.250   0.244   0.226   0.383   0.227   0.252   0.079   0.251
              0.024   0.015   0.002   0.016   0.024
  23  2.004   0.246   0.245   0.225   0.389   0.233   0.251   0.083   0.252
              0.023   0.015   0.002   0.015   0.024
  24  1.992   0.248   0.244   0.229   0.383   0.230   0.250   0.079   0.250
              0.023   0.016   0.002   0.016   0.024
  25  2.002   0.249   0.245   0.231   0.390   0.228   0.248   0.081   0.251
              0.023   0.015   0.002   0.015   0.024
  26  1.997   0.249   0.244   0.231   0.386   0.228   0.248   0.079   0.251
              0.023   0.015   0.002   0.016   0.024
  27  2.008   0.248   0.245   0.229   0.393   0.230   0.250   0.082   0.251
              0.023   0.016   0.002   0.016   0.024
  28  1.999   0.247   0.245   0.225   0.385   0.232   0.251   0.082   0.251
              0.023   0.016   0.002   0.016   0.024
  29  2.004   0.250   0.244   0.226   0.392   0.227   0.253   0.082   0.251
              0.024   0.014   0.002   0.015   0.024
  30  1.887   0.172   0.280   0.165   0.388   0.152   0.291   0.073   0.304
              0.024   0.011   0.001   0.010   0.015
  31  1.903   0.176   0.279   0.085   0.404   0.239   0.344   0.073   0.243
              0.018   0.004   0.001   0.015   0.021
  33  1.965   0.249   0.243   0.214   0.373   0.234   0.259   0.076   0.237
              0.023   0.016   0.002   0.015   0.024
  34  1.993   0.247   0.245   0.226   0.381   0.233   0.249   0.080   0.252
              0.024   0.016   0.001   0.016   0.024
  35  2.007   0.260   0.240   0.236   0.398   0.247   0.242   0.075   0.232
              0.024   0.016   0.001   0.014   0.022
  36  1.998   0.249   0.244   0.230   0.387   0.229   0.249   0.080   0.250
              0.023   0.016   0.002   0.016   0.024
  37  2.005   0.247   0.245   0.225   0.391   0.235   0.251   0.083   0.248
              0.023   0.016   0.002   0.015   0.024
  38  1.998   0.247   0.245   0.229   0.385   0.230   0.249   0.081   0.251
              0.023   0.016   0.002   0.016   0.024
  39  2.000   0.250   0.244   0.226   0.390   0.226   0.252   0.081   0.252
              0.024   0.014   0.002   0.015   0.024
  40  1.968   0.235   0.249   0.213   0.370   0.210   0.256   0.086   0.264
              0.024   0.015   0.002   0.019   0.025
  41  1.936   0.183   0.278   0.082   0.428   0.252   0.345   0.071   0.237
              0.017   0.004   0.001   0.016   0.021
  43  1.997   0.248   0.244   0.231   0.385   0.233   0.255   0.082   0.239
              0.023   0.017   0.001   0.015   0.024
  44  1.997   0.246   0.245   0.229   0.381   0.232   0.247   0.082   0.254
              0.024   0.015   0.001   0.017   0.024
  45  2.009   0.262   0.240   0.230   0.405   0.248   0.244   0.073   0.230
              0.025   0.015   0.002   0.014   0.022
  46  1.969   0.235   0.248   0.215   0.370   0.214   0.255   0.086   0.259
              0.024   0.016   0.002   0.020   0.024
  47  1.937   0.183   0.277   0.083   0.426   0.252   0.346   0.074   0.236
              0.017   0.005   0.001   0.016   0.022
  49  1.983   0.243   0.245   0.222   0.378   0.229   0.256   0.083   0.244
              0.022   0.017   0.002   0.017   0.025

mulliken: Qtot =       88.000

mulliken: Spin DOWN 

Species: H.ca                
Atom  Qatom  Qorb
               1s      1s      1Ppy    1Ppz    1Ppx    
   1  0.622   0.403   0.160   0.025   0.020   0.014
   3  0.625   0.419   0.150   0.024   0.020   0.012
   9  0.625   0.420   0.148   0.023   0.019   0.013
  19  0.623   0.407   0.158   0.017   0.019   0.022
  32  0.623   0.407   0.158   0.017   0.019   0.022
  42  0.625   0.421   0.148   0.024   0.018   0.013
  48  0.626   0.421   0.150   0.024   0.018   0.012
  50  0.623   0.405   0.161   0.025   0.018   0.014

Species: C.ca2               
Atom  Qatom  Qorb
               2s      2s      2py     2pz     2px     2py     2pz     2px     
               2Pdxy   2Pdyz   2Pdz2   2Pdxz   2Pdx2-y2
   2  1.983   0.243   0.245   0.222   0.378   0.228   0.255   0.083   0.244
              0.022   0.017   0.002   0.017   0.025
   4  1.937   0.183   0.277   0.083   0.426   0.252   0.346   0.074   0.236
              0.017   0.005   0.001   0.016   0.022
   5  1.969   0.235   0.248   0.215   0.370   0.215   0.255   0.086   0.259
              0.024   0.016   0.002   0.020   0.025
   6  2.009   0.262   0.239   0.231   0.406   0.248   0.244   0.073   0.230
              0.025   0.015   0.002   0.014   0.021
   7  1.997   0.246   0.245   0.229   0.381   0.232   0.247   0.082   0.254
              0.024   0.015   0.001   0.017   0.024
   8  1.997   0.248   0.244   0.231   0.385   0.233   0.255   0.082   0.240
              0.023   0.017   0.001   0.015   0.024
  10  1.936   0.183   0.278   0.082   0.428   0.252   0.345   0.071   0.237
              0.017   0.004   0.001   0.016   0.021
  11  1.968   0.235   0.249   0.213   0.370   0.210   0.256   0.086   0.264
              0.024   0.015   0.002   0.019   0.025
  12  2.000   0.250   0.244   0.226   0.390   0.226   0.252   0.081   0.252
              0.024   0.014   0.002   0.015   0.024
  13  1.998   0.248   0.245   0.229   0.385   0.230   0.249   0.081   0.251
              0.023   0.016   0.002   0.016   0.024
  14  2.005   0.247   0.245   0.225   0.391   0.235   0.251   0.083   0.248
              0.023   0.016   0.002   0.015   0.024
  15  1.998   0.249   0.244   0.230   0.387   0.229   0.249   0.080   0.250
              0.023   0.016   0.002   0.016   0.024
  16  2.007   0.259   0.240   0.236   0.398   0.247   0.242   0.075   0.232
              0.024   0.016   0.001   0.014   0.022
  17  1.993   0.247   0.245   0.226   0.381   0.233   0.249   0.080   0.252
              0.024   0.016   0.001   0.016   0.024
  18  1.965   0.249   0.243   0.214   0.373   0.234   0.259   0.076   0.237
              0.023   0.016   0.002   0.015   0.024
  20  1.903   0.176   0.279   0.085   0.404   0.239   0.344   0.073   0.243
              0.018   0.004   0.001   0.015   0.021
  21  1.887   0.172   0.280   0.165   0.388   0.152   0.291   0.073   0.304
              0.024   0.011   0.001   0.010   0.015
  22  2.004   0.250   0.244   0.226   0.392   0.228   0.253   0.082   0.251
              0.024   0.014   0.002   0.015   0.024
  23  1.999   0.247   0.245   0.225   0.385   0.232   0.251   0.082   0.251
              0.023   0.016   0.002   0.016   0.024
  24  2.008   0.248   0.245   0.229   0.393   0.230   0.250   0.082   0.251
              0.023   0.016   0.002   0.016   0.024
  25  1.997   0.249   0.244   0.231   0.386   0.228   0.248   0.079   0.251
              0.023   0.015   0.002   0.016   0.024
  26  2.002   0.249   0.245   0.231   0.390   0.228   0.248   0.081   0.251
              0.023   0.015   0.002   0.015   0.024
  27  1.992   0.248   0.244   0.229   0.383   0.230   0.250   0.079   0.250
              0.023   0.016   0.002   0.016   0.024
  28  2.004   0.247   0.245   0.225   0.389   0.233   0.251   0.083   0.251
              0.023   0.015   0.002   0.015   0.024
  29  1.991   0.250   0.244   0.226   0.383   0.227   0.253   0.079   0.251
              0.024   0.015   0.002   0.016   0.024
  30  1.894   0.172   0.280   0.166   0.394   0.153   0.292   0.074   0.304
              0.024   0.010   0.001   0.009   0.015
  31  1.873   0.177   0.278   0.084   0.382   0.239   0.343   0.068   0.242
              0.018   0.004   0.001   0.016   0.021
  33  2.004   0.248   0.246   0.215   0.401   0.235   0.260   0.084   0.238
              0.023   0.016   0.002   0.015   0.024
  34  2.007   0.247   0.246   0.226   0.391   0.234   0.249   0.083   0.252
              0.024   0.015   0.001   0.016   0.024
  35  1.999   0.260   0.239   0.236   0.393   0.247   0.242   0.073   0.232
              0.024   0.016   0.001   0.015   0.022
  36  2.002   0.249   0.245   0.230   0.390   0.229   0.249   0.081   0.250
              0.023   0.015   0.002   0.015   0.024
  37  1.996   0.247   0.244   0.224   0.385   0.235   0.251   0.081   0.248
              0.023   0.016   0.002   0.016   0.024
  38  2.004   0.247   0.245   0.230   0.389   0.230   0.250   0.082   0.251
              0.023   0.015   0.002   0.016   0.024
  39  1.995   0.250   0.244   0.226   0.386   0.226   0.252   0.080   0.252
              0.024   0.015   0.002   0.016   0.024
  40  1.975   0.235   0.250   0.213   0.375   0.210   0.256   0.088   0.266
              0.024   0.014   0.002   0.016   0.025
  41  1.872   0.184   0.275   0.081   0.382   0.251   0.344   0.060   0.236
              0.017   0.005   0.001   0.016   0.021
  43  2.002   0.248   0.244   0.231   0.388   0.233   0.256   0.083   0.240
              0.023   0.017   0.001   0.014   0.024
  44  2.003   0.246   0.246   0.229   0.385   0.232   0.247   0.083   0.254
              0.024   0.015   0.001   0.016   0.024
  45  1.994   0.262   0.238   0.230   0.394   0.248   0.243   0.070   0.230
              0.025   0.015   0.002   0.014   0.022
  46  1.975   0.235   0.250   0.215   0.375   0.215   0.256   0.088   0.260
              0.024   0.015   0.002   0.016   0.025
  47  1.877   0.183   0.274   0.082   0.382   0.251   0.345   0.064   0.235
              0.017   0.005   0.001   0.016   0.022
  49  1.990   0.243   0.247   0.222   0.384   0.229   0.256   0.085   0.245
              0.022   0.016   0.002   0.014   0.025

mulliken: Qtot =       88.000

                     ====================================
                        Begin CG opt. move =      1
                     ====================================

superc: Internal auxiliary supercell:     3 x     1 x     1  =       3
superc: Number of atoms, orbitals, and projectors:    150   1758   2232

outcell: Unit cell vectors (Ang):
        8.870000    0.000000    0.000000
        0.000000   50.000000    0.000000
        0.000000    0.000000   20.000000

outcell: Cell vector modules (Ang)   :    8.870000   50.000000   20.000000
outcell: Cell angles (23,13,12) (deg):     90.0000     90.0000     90.0000
outcell: Cell volume (Ang**3)        :   8870.0000
<dSpData1D:S at geom step 1
  <sparsity:sparsity for geom step 1
    nrows_g=586 nrows=34 sparsity=.0443 nnzs=15219, refcount: 7>
  <dData1D:(new from dSpData1D) n=15219, refcount: 1>
refcount: 1>
new_DM -- step:     2
Re-using DM from previous geometries...
Number of DMs in history: 1
 DM extrapolation coefficients: 
1   1.00000
New DM after history re-use:
<dSpData2D:SpM extrapolated using coords
  <sparsity:sparsity for geom step 1
    nrows_g=586 nrows=34 sparsity=.0443 nnzs=15219, refcount: 8>
  <dData2D:(temp array for extrapolation) n=15219 m=2, refcount: 1>
refcount: 1>
No. of atoms with KB's overlaping orbs in proc 0. Max # of overlaps:      40     217
New grid distribution:   1
           1       1:   54    1:   80    1:   21
           2       1:   54    1:   80   22:   42
           3       1:   54    1:   80   43:   63
           4       1:   54    1:   80   64:   84
           5       1:   54    1:   80   85:  105
           6       1:   54    1:   80  106:  125
           7       1:   54   81:  160    1:   21
           8       1:   54   81:  160   22:   42
           9       1:   54   81:  160   43:   63
          10       1:   54   81:  160   64:   84
          11       1:   54   81:  160   85:  105
          12       1:   54   81:  160  106:  125
          13       1:   54  161:  240    1:   21
          14       1:   54  161:  240   22:   42
          15       1:   54  161:  240   43:   63
          16       1:   54  161:  240   64:   84
          17       1:   54  161:  240   85:  105
          18       1:   54  161:  240  106:  125
          19       1:   54  241:  320    1:   21
          20       1:   54  241:  320   22:   42
          21       1:   54  241:  320   43:   63
          22       1:   54  241:  320   64:   84
          23       1:   54  241:  320   85:  105
          24       1:   54  241:  320  106:  125

InitMesh: MESH =   108 x   640 x   250 =    17280000
InitMesh: (bp) =    54 x   320 x   125 =     2160000
InitMesh: Mesh cutoff (required, used) =   400.000   409.734 Ry
ExtMesh (bp) on 0 =   118 x   148 x    89 =     1554296
New grid distribution:   2
           1       1:   54    1:   45    1:   63
           2       1:   54   66:   78    1:   59
           3       1:   54   59:   65    1:   63
           4       1:   54   46:   58   64:   67
           5       1:   54    1:   45   64:  125
           6       1:   54   66:   78   60:   63
           7       1:   54   86:   98    1:   59
           8       1:   54   79:   85    1:   63
           9       1:   54   46:   58    1:   59
          10       1:   54  105:  320   64:   67
          11       1:   54   79:   85   64:  125
          12       1:   54   46:   58   60:   63
          13       1:   54  105:  320    1:   58
          14       1:   54   66:   78   68:  125
          15       1:   54   59:   65   64:  125
          16       1:   54   86:   98   60:   63
          17       1:   54  105:  320   68:  125
          18       1:   54   86:   98   68:  125
          19       1:   54   99:  104    1:   63
          20       1:   54   86:   98   64:   67
          21       1:   54  105:  320   59:   63
          22       1:   54   46:   58   68:  125
          23       1:   54   99:  104   64:  125
          24       1:   54   66:   78   64:   67
New grid distribution:   3
           1       1:   54    1:   32    1:   63
           2       1:   54   61:   79    1:   55
           3       1:   54   52:   60    1:   63
           4       1:   54   33:   51   64:   71
           5       1:   54    1:   32   64:  125
           6       1:   54   33:   51    1:   55
           7       1:   54   80:   89    1:   63
           8       1:   54   61:   79   56:   63
           9       1:   54   61:   79   72:  125
          10       1:   54  117:  320   64:   70
          11       1:   54  108:  116    1:   63
          12       1:   54   33:   51   56:   63
          13       1:   54  117:  320    1:   56
          14       1:   54   89:  107   72:  125
          15       1:   54   80:   88   64:  125
          16       1:   54   89:  107   64:   71
          17       1:   54  117:  320   71:  125
          18       1:   54   33:   51   72:  125
          19       1:   54   52:   60   64:  125
          20       1:   54   61:   79   64:   71
          21       1:   54  117:  320   57:   63
          22       1:   54   90:  107    1:   55
          23       1:   54  108:  116   64:  125
          24       1:   54   90:  107   56:   63
Setting up quadratic distribution...
ExtMesh (bp) on 0 =   118 x   113 x   131 =     1746754
PhiOnMesh: Number of (b)points on node 0 =               153090
PhiOnMesh: nlist on node 0 =               540827

        iscf     Eharris(eV)        E_KS(eV)     FreeEng(eV)     dDmax    Ef(eV) dHmax(eV)
   scf:    1    -6644.506968    -6644.277482    -6644.284042  0.007656 -3.661028  0.542030
   scf:    2    -6643.531260    -6644.082098    -6644.088538  0.011421 -3.631189  1.460500
   scf:    3    -6644.386021    -6644.328201    -6644.334685  0.009185 -3.654396  0.073789
   scf:    4    -6644.330190    -6644.329406    -6644.335885  0.000580 -3.654762  0.057570
   scf:    5    -6644.332176    -6644.331041    -6644.337507  0.000349 -3.656344  0.023491
   scf:    6    -6644.331681    -6644.331430    -6644.337884  0.000129 -3.657506  0.007947
   scf:    7    -6644.331468    -6644.331450    -6644.337900  0.000063 -3.657804  0.004191
   scf:    8    -6644.331466    -6644.331459    -6644.337906  0.000042 -3.657989  0.001853
   scf:    9    -6644.331471    -6644.331465    -6644.337906  0.000040 -3.658098  0.000890
   scf:   10    -6644.331468    -6644.331466    -6644.337906  0.000006 -3.658115  0.000758

SCF Convergence by DM+H criterion
max |DM_out - DM_in|         :     0.0000061130
max |H_out - H_in|      (eV) :     0.0007578413
SCF cycle converged after 10 iterations

Using DM_out to compute the final energy and forces
No. of atoms with KB's overlaping orbs in proc 0. Max # of overlaps:      40     217

siesta: E_KS(eV) =            -6644.3315

siesta: Total spin polarization (Qup-Qdown) =   -0.000021

siesta: Atomic forces (eV/Ang):
----------------------------------------
   Tot    0.016237   -0.002899    0.000000
----------------------------------------
   Max    1.647699
   Res    0.407251    sqrt( Sum f_i^2 / 3N )
----------------------------------------
   Max    1.647699    constrained

Stress-tensor-Voigt (kbar):        0.91        2.73        0.00       -1.13       -0.00       -0.00
(Free)E + p*V (eV/cell)    -6651.0506
Target enthalpy (eV/cell)    -6644.3379
 
mulliken: Atomic and Orbital Populations:

mulliken: Spin UP 

Species: H.ca                
Atom  Qatom  Qorb
               1s      1s      1Ppy    1Ppz    1Ppx    
   1  0.622   0.405   0.160   0.025   0.018   0.014
   3  0.625   0.421   0.150   0.024   0.018   0.012
   9  0.625   0.421   0.148   0.024   0.018   0.013
  19  0.623   0.408   0.157   0.018   0.018   0.021
  32  0.622   0.408   0.157   0.018   0.019   0.021
  42  0.624   0.420   0.148   0.023   0.019   0.013
  48  0.625   0.419   0.150   0.024   0.020   0.012
  50  0.622   0.403   0.160   0.025   0.020   0.014

Species: C.ca2               
Atom  Qatom  Qorb
               2s      2s      2py     2pz     2px     2py     2pz     2px     
               2Pdxy   2Pdyz   2Pdz2   2Pdxz   2Pdx2-y2
   2  1.990   0.246   0.246   0.225   0.388   0.227   0.249   0.081   0.250
              0.022   0.015   0.002   0.015   0.025
   4  1.875   0.185   0.274   0.086   0.383   0.250   0.341   0.061   0.235
              0.017   0.005   0.001   0.016   0.021
   5  1.975   0.234   0.250   0.216   0.375   0.215   0.256   0.088   0.261
              0.024   0.015   0.002   0.016   0.025
   6  1.995   0.260   0.240   0.229   0.395   0.241   0.244   0.071   0.237
              0.024   0.015   0.002   0.015   0.022
   7  2.003   0.247   0.246   0.231   0.386   0.230   0.247   0.082   0.254
              0.024   0.015   0.001   0.016   0.024
   8  2.002   0.250   0.244   0.233   0.391   0.231   0.247   0.079   0.247
              0.023   0.015   0.001   0.015   0.024
  10  1.873   0.184   0.275   0.081   0.382   0.251   0.344   0.061   0.236
              0.017   0.004   0.001   0.016   0.021
  11  1.974   0.235   0.250   0.214   0.375   0.210   0.256   0.087   0.265
              0.024   0.014   0.002   0.016   0.024
  12  1.996   0.249   0.244   0.225   0.386   0.227   0.252   0.080   0.252
              0.024   0.015   0.002   0.016   0.024
  13  2.004   0.248   0.245   0.230   0.388   0.230   0.250   0.082   0.251
              0.023   0.015   0.002   0.016   0.024
  14  1.997   0.249   0.244   0.228   0.387   0.233   0.249   0.080   0.248
              0.023   0.016   0.002   0.016   0.023
  15  2.002   0.248   0.245   0.230   0.389   0.230   0.249   0.081   0.250
              0.023   0.015   0.002   0.016   0.024
  16  1.998   0.259   0.241   0.234   0.394   0.239   0.241   0.072   0.239
              0.023   0.015   0.002   0.015   0.022
  17  2.007   0.247   0.246   0.229   0.391   0.231   0.249   0.083   0.252
              0.024   0.015   0.001   0.016   0.024
  18  2.006   0.246   0.246   0.216   0.402   0.231   0.257   0.084   0.245
              0.023   0.015   0.002   0.015   0.024
  20  1.875   0.176   0.278   0.085   0.382   0.237   0.342   0.070   0.245
              0.018   0.004   0.001   0.016   0.021
  21  1.893   0.173   0.280   0.169   0.393   0.150   0.288   0.074   0.307
              0.024   0.010   0.001   0.010   0.015
  22  1.991   0.250   0.244   0.225   0.382   0.228   0.252   0.080   0.251
              0.024   0.015   0.002   0.016   0.024
  23  2.003   0.249   0.245   0.228   0.391   0.232   0.249   0.081   0.250
              0.023   0.015   0.002   0.015   0.024
  24  1.993   0.248   0.244   0.229   0.383   0.229   0.250   0.079   0.250
              0.023   0.016   0.002   0.016   0.024
  25  2.003   0.248   0.245   0.230   0.391   0.230   0.249   0.081   0.250
              0.023   0.015   0.002   0.015   0.024
  26  1.997   0.248   0.244   0.230   0.386   0.230   0.248   0.080   0.250
              0.023   0.016   0.002   0.016   0.024
  27  2.007   0.247   0.245   0.229   0.392   0.230   0.250   0.082   0.251
              0.023   0.015   0.002   0.016   0.024
  28  1.998   0.249   0.244   0.227   0.387   0.232   0.249   0.080   0.250
              0.023   0.016   0.002   0.016   0.024
  29  2.005   0.249   0.245   0.226   0.392   0.228   0.253   0.082   0.251
              0.024   0.014   0.002   0.016   0.024
  30  1.886   0.173   0.279   0.168   0.387   0.150   0.287   0.073   0.306
              0.024   0.011   0.001   0.011   0.015
  31  1.903   0.176   0.279   0.086   0.402   0.237   0.343   0.075   0.245
              0.018   0.004   0.001   0.016   0.021
  33  1.965   0.247   0.244   0.215   0.373   0.230   0.256   0.076   0.244
              0.023   0.015   0.002   0.016   0.024
  34  1.994   0.247   0.245   0.228   0.382   0.231   0.249   0.080   0.252
              0.024   0.016   0.001   0.016   0.024
  35  2.005   0.259   0.242   0.234   0.399   0.240   0.242   0.073   0.239
              0.023   0.015   0.001   0.015   0.022
  36  1.998   0.248   0.244   0.230   0.387   0.230   0.249   0.080   0.250
              0.023   0.016   0.002   0.016   0.024
  37  2.004   0.249   0.245   0.228   0.392   0.233   0.249   0.081   0.248
              0.023   0.015   0.002   0.015   0.023
  38  1.998   0.248   0.245   0.230   0.384   0.230   0.249   0.081   0.251
              0.023   0.016   0.002   0.016   0.024
  39  2.001   0.249   0.244   0.225   0.390   0.228   0.252   0.081   0.252
              0.024   0.014   0.002   0.015   0.024
  40  1.968   0.236   0.248   0.214   0.370   0.210   0.255   0.086   0.264
              0.024   0.015   0.002   0.019   0.024
  41  1.935   0.183   0.278   0.082   0.427   0.252   0.345   0.071   0.237
              0.017   0.004   0.001   0.016   0.021
  43  1.998   0.251   0.244   0.232   0.388   0.231   0.247   0.078   0.246
              0.023   0.016   0.001   0.016   0.024
  44  1.997   0.247   0.245   0.231   0.382   0.230   0.247   0.081   0.253
              0.024   0.015   0.002   0.017   0.024
  45  2.007   0.260   0.241   0.230   0.404   0.241   0.244   0.073   0.238
              0.024   0.015   0.002   0.014   0.022
  46  1.969   0.234   0.249   0.215   0.369   0.214   0.255   0.087   0.260
              0.024   0.015   0.002   0.020   0.025
  47  1.938   0.184   0.277   0.087   0.430   0.251   0.342   0.072   0.236
              0.017   0.005   0.001   0.016   0.021
  49  1.983   0.246   0.245   0.225   0.382   0.227   0.248   0.079   0.249
              0.022   0.016   0.002   0.018   0.025

mulliken: Qtot =       88.000

mulliken: Spin DOWN 

Species: H.ca                
Atom  Qatom  Qorb
               1s      1s      1Ppy    1Ppz    1Ppx    
   1  0.622   0.403   0.160   0.025   0.020   0.014
   3  0.625   0.419   0.150   0.024   0.020   0.012
   9  0.624   0.420   0.148   0.023   0.019   0.013
  19  0.623   0.408   0.157   0.018   0.019   0.021
  32  0.623   0.408   0.157   0.018   0.018   0.021
  42  0.625   0.421   0.148   0.024   0.018   0.013
  48  0.625   0.421   0.150   0.024   0.018   0.012
  50  0.622   0.405   0.160   0.025   0.018   0.014

Species: C.ca2               
Atom  Qatom  Qorb
               2s      2s      2py     2pz     2px     2py     2pz     2px     
               2Pdxy   2Pdyz   2Pdz2   2Pdxz   2Pdx2-y2
   2  1.983   0.246   0.245   0.225   0.382   0.226   0.248   0.079   0.249
              0.022   0.016   0.002   0.018   0.025
   4  1.939   0.184   0.277   0.087   0.430   0.251   0.342   0.072   0.236
              0.017   0.005   0.001   0.016   0.021
   5  1.969   0.234   0.249   0.215   0.369   0.215   0.255   0.087   0.260
              0.024   0.015   0.002   0.020   0.025
   6  2.007   0.260   0.241   0.230   0.404   0.241   0.244   0.073   0.238
              0.024   0.015   0.002   0.014   0.022
   7  1.997   0.247   0.245   0.231   0.382   0.230   0.247   0.081   0.253
              0.024   0.015   0.001   0.017   0.024
   8  1.997   0.250   0.244   0.232   0.388   0.231   0.247   0.078   0.246
              0.023   0.016   0.001   0.016   0.024
  10  1.935   0.183   0.278   0.082   0.427   0.252   0.345   0.071   0.237
              0.017   0.004   0.001   0.016   0.021
  11  1.968   0.236   0.249   0.214   0.370   0.210   0.255   0.086   0.264
              0.024   0.015   0.002   0.019   0.024
  12  2.000   0.249   0.244   0.225   0.390   0.228   0.252   0.081   0.252
              0.024   0.014   0.002   0.015   0.024
  13  1.998   0.248   0.245   0.230   0.384   0.230   0.249   0.081   0.251
              0.023   0.016   0.002   0.016   0.024
  14  2.004   0.249   0.245   0.228   0.392   0.233   0.249   0.081   0.248
              0.023   0.015   0.002   0.015   0.023
  15  1.998   0.248   0.245   0.230   0.387   0.230   0.249   0.080   0.250
              0.023   0.016   0.002   0.016   0.024
  16  2.005   0.259   0.242   0.234   0.399   0.240   0.242   0.073   0.239
              0.023   0.015   0.001   0.015   0.022
  17  1.994   0.247   0.245   0.228   0.382   0.231   0.249   0.080   0.252
              0.024   0.016   0.001   0.016   0.024
  18  1.965   0.247   0.244   0.215   0.373   0.230   0.256   0.076   0.244
              0.023   0.015   0.002   0.016   0.024
  20  1.903   0.175   0.279   0.085   0.402   0.238   0.343   0.075   0.245
              0.018   0.004   0.001   0.016   0.021
  21  1.886   0.173   0.279   0.168   0.387   0.150   0.287   0.073   0.306
              0.024   0.011   0.001   0.011   0.015
  22  2.005   0.249   0.245   0.226   0.392   0.228   0.253   0.082   0.251
              0.024   0.014   0.002   0.016   0.024
  23  1.998   0.249   0.244   0.227   0.387   0.232   0.249   0.080   0.250
              0.023   0.016   0.002   0.016   0.024
  24  2.007   0.247   0.245   0.229   0.392   0.230   0.250   0.082   0.251
              0.023   0.015   0.002   0.016   0.024
  25  1.997   0.248   0.244   0.230   0.386   0.230   0.248   0.080   0.250
              0.023   0.016   0.002   0.016   0.024
  26  2.003   0.248   0.245   0.230   0.391   0.230   0.249   0.081   0.250
              0.023   0.015   0.002   0.015   0.024
  27  1.993   0.248   0.244   0.229   0.383   0.229   0.250   0.079   0.250
              0.023   0.016   0.002   0.016   0.024
  28  2.003   0.249   0.245   0.228   0.391   0.232   0.249   0.081   0.250
              0.023   0.015   0.002   0.015   0.024
  29  1.991   0.249   0.244   0.225   0.382   0.228   0.253   0.080   0.251
              0.024   0.015   0.002   0.016   0.024
  30  1.893   0.173   0.280   0.168   0.393   0.150   0.288   0.074   0.307
              0.024   0.010   0.001   0.010   0.015
  31  1.874   0.176   0.278   0.085   0.382   0.237   0.342   0.070   0.245
              0.018   0.004   0.001   0.016   0.021
  33  2.006   0.246   0.246   0.216   0.402   0.230   0.257   0.084   0.245
              0.023   0.015   0.002   0.015   0.024
  34  2.007   0.247   0.245   0.229   0.391   0.231   0.249   0.083   0.252
              0.024   0.015   0.001   0.016   0.024
  35  1.998   0.259   0.241   0.234   0.394   0.240   0.241   0.072   0.239
              0.023   0.015   0.002   0.015   0.022
  36  2.002   0.248   0.245   0.230   0.389   0.230   0.249   0.081   0.250
              0.023   0.015   0.002   0.016   0.024
  37  1.997   0.249   0.244   0.228   0.387   0.233   0.249   0.080   0.248
              0.023   0.016   0.002   0.016   0.023
  38  2.003   0.247   0.245   0.230   0.388   0.230   0.250   0.082   0.251
              0.023   0.015   0.002   0.016   0.024
  39  1.996   0.249   0.244   0.225   0.386   0.227   0.252   0.080   0.252
              0.024   0.015   0.002   0.016   0.024
  40  1.974   0.236   0.250   0.214   0.375   0.210   0.256   0.087   0.265
              0.024   0.014   0.002   0.016   0.024
  41  1.873   0.184   0.275   0.081   0.382   0.251   0.344   0.061   0.236
              0.017   0.004   0.001   0.016   0.021
  43  2.002   0.250   0.244   0.233   0.391   0.231   0.247   0.079   0.247
              0.023   0.015   0.001   0.015   0.024
  44  2.003   0.247   0.246   0.231   0.386   0.230   0.247   0.082   0.253
              0.024   0.015   0.001   0.016   0.024
  45  1.995   0.260   0.240   0.229   0.395   0.241   0.244   0.071   0.238
              0.024   0.015   0.002   0.015   0.022
  46  1.975   0.234   0.250   0.216   0.375   0.215   0.256   0.088   0.261
              0.024   0.015   0.002   0.016   0.025
  47  1.875   0.185   0.274   0.086   0.383   0.250   0.341   0.062   0.235
              0.017   0.005   0.001   0.016   0.021
  49  1.990   0.246   0.246   0.225   0.388   0.227   0.249   0.081   0.250
              0.022   0.015   0.002   0.015   0.025

mulliken: Qtot =       88.000

                     ====================================
                        Begin CG opt. move =      2
                     ====================================

superc: Internal auxiliary supercell:     3 x     1 x     1  =       3
superc: Number of atoms, orbitals, and projectors:    150   1758   2232

outcell: Unit cell vectors (Ang):
        8.870000    0.000000    0.000000
        0.000000   50.000000    0.000000
        0.000000    0.000000   20.000000

outcell: Cell vector modules (Ang)   :    8.870000   50.000000   20.000000
outcell: Cell angles (23,13,12) (deg):     90.0000     90.0000     90.0000
outcell: Cell volume (Ang**3)        :   8870.0000
<dSpData1D:S at geom step 2
  <sparsity:sparsity for geom step 2
    nrows_g=586 nrows=34 sparsity=.0444 nnzs=15251, refcount: 7>
  <dData1D:(new from dSpData1D) n=15251, refcount: 1>
refcount: 1>
new_DM -- step:     3
Re-using DM from previous geometries...
Number of DMs in history: 1
 DM extrapolation coefficients: 
1   1.00000
New DM after history re-use:
<dSpData2D:SpM extrapolated using coords
  <sparsity:sparsity for geom step 2
    nrows_g=586 nrows=34 sparsity=.0444 nnzs=15251, refcount: 8>
  <dData2D:(temp array for extrapolation) n=15251 m=2, refcount: 1>
refcount: 1>
No. of atoms with KB's overlaping orbs in proc 0. Max # of overlaps:      40     217
New grid distribution:   1
           1       1:   54    1:   80    1:   21
           2       1:   54    1:   80   22:   42
           3       1:   54    1:   80   43:   63
           4       1:   54    1:   80   64:   84
           5       1:   54    1:   80   85:  105
           6       1:   54    1:   80  106:  125
           7       1:   54   81:  160    1:   21
           8       1:   54   81:  160   22:   42
           9       1:   54   81:  160   43:   63
          10       1:   54   81:  160   64:   84
          11       1:   54   81:  160   85:  105
          12       1:   54   81:  160  106:  125
          13       1:   54  161:  240    1:   21
          14       1:   54  161:  240   22:   42
          15       1:   54  161:  240   43:   63
          16       1:   54  161:  240   64:   84
          17       1:   54  161:  240   85:  105
          18       1:   54  161:  240  106:  125
          19       1:   54  241:  320    1:   21
          20       1:   54  241:  320   22:   42
          21       1:   54  241:  320   43:   63
          22       1:   54  241:  320   64:   84
          23       1:   54  241:  320   85:  105
          24       1:   54  241:  320  106:  125

InitMesh: MESH =   108 x   640 x   250 =    17280000
InitMesh: (bp) =    54 x   320 x   125 =     2160000
InitMesh: Mesh cutoff (required, used) =   400.000   409.734 Ry
ExtMesh (bp) on 0 =   118 x   148 x    89 =     1554296
New grid distribution:   2
           1       1:   54    1:   45    1:   63
           2       1:   54   66:   78    1:   59
           3       1:   54   59:   65    1:   63
           4       1:   54   46:   58   64:   67
           5       1:   54    1:   45   64:  125
           6       1:   54   66:   78   60:   63
           7       1:   54   86:   98    1:   59
           8       1:   54   79:   85    1:   63
           9       1:   54   46:   58    1:   59
          10       1:   54  105:  320   64:   67
          11       1:   54   79:   85   64:  125
          12       1:   54   46:   58   60:   63
          13       1:   54  105:  320    1:   58
          14       1:   54   66:   78   68:  125
          15       1:   54   59:   65   64:  125
          16       1:   54   86:   98   60:   63
          17       1:   54  105:  320   68:  125
          18       1:   54   86:   98   68:  125
          19       1:   54   99:  104    1:   63
          20       1:   54   86:   98   64:   67
          21       1:   54  105:  320   59:   63
          22       1:   54   46:   58   68:  125
          23       1:   54   99:  104   64:  125
          24       1:   54   66:   78   64:   67
New grid distribution:   3
           1       1:   54    1:   32    1:   63
           2       1:   54   33:   51    1:   55
           3       1:   54   52:   61    1:   63
           4       1:   54   33:   51   64:   71
           5       1:   54    1:   32   64:  125
           6       1:   54   33:   51   72:  125
           7       1:   54   80:   89    1:   63
           8       1:   54   33:   51   56:   63
           9       1:   54   52:   61   64:  125
          10       1:   54  117:  320   64:   70
          11       1:   54   89:  107   72:  125
          12       1:   54   89:  107   64:   71
          13       1:   54  117:  320    1:   56
          14       1:   54   62:   79    1:   55
          15       1:   54  108:  116    1:   63
          16       1:   54   90:  107   56:   63
          17       1:   54  117:  320   71:  125
          18       1:   54   90:  107    1:   55
          19       1:   54  108:  116   64:  125
          20       1:   54   62:   79   64:   71
          21       1:   54  117:  320   57:   63
          22       1:   54   62:   79   72:  125
          23       1:   54   80:   88   64:  125
          24       1:   54   62:   79   56:   63
Setting up quadratic distribution...
ExtMesh (bp) on 0 =   118 x   113 x   131 =     1746754
PhiOnMesh: Number of (b)points on node 0 =               153090
PhiOnMesh: nlist on node 0 =               540867

        iscf     Eharris(eV)        E_KS(eV)     FreeEng(eV)     dDmax    Ef(eV) dHmax(eV)
   scf:    1    -6643.502031    -6643.751781    -6643.757743  0.016741 -3.702194  0.628455
   scf:    2    -6642.461999    -6643.423109    -6643.428954  0.013081 -3.625806  1.642830
   scf:    3    -6643.974085    -6643.852705    -6643.858566  0.009616 -3.681180  0.081980
   scf:    4    -6643.859695    -6643.856826    -6643.862668  0.000607 -3.682323  0.031950
   scf:    5    -6643.857441    -6643.857171    -6643.863008  0.000271 -3.682524  0.025604
   scf:    6    -6643.857732    -6643.857504    -6643.863329  0.000179 -3.682791  0.007736
   scf:    7    -6643.857575    -6643.857545    -6643.863362  0.000125 -3.682786  0.004979
   scf:    8    -6643.857567    -6643.857558    -6643.863370  0.000022 -3.682930  0.002324
   scf:    9    -6643.857589    -6643.857574    -6643.863376  0.000062 -3.682967  0.001219
   scf:   10    -6643.857583    -6643.857579    -6643.863378  0.000013 -3.682965  0.001087
   scf:   11    -6643.857600    -6643.857591    -6643.863380  0.000035 -3.682952  0.000745
   scf:   12    -6643.857607    -6643.857599    -6643.863381  0.000027 -3.682928  0.000491
   scf:   13    -6643.857607    -6643.857602    -6643.863379  0.000016 -3.682923  0.000400
   scf:   14    -6643.857607    -6643.857604    -6643.863379  0.000008 -3.682923  0.000349

SCF Convergence by DM+H criterion
max |DM_out - DM_in|         :     0.0000075024
max |H_out - H_in|      (eV) :     0.0003487819
SCF cycle converged after 14 iterations

Using DM_out to compute the final energy and forces
No. of atoms with KB's overlaping orbs in proc 0. Max # of overlaps:      40     217

siesta: E_KS(eV) =            -6643.8576

siesta: Total spin polarization (Qup-Qdown) =   -0.000023

siesta: Atomic forces (eV/Ang):
----------------------------------------
   Tot    0.011473    0.009817    0.000000
----------------------------------------
   Max    3.369013
   Res    0.949540    sqrt( Sum f_i^2 / 3N )
----------------------------------------
   Max    3.369013    constrained

Stress-tensor-Voigt (kbar):       -0.31        3.31        0.00       -1.14        0.00       -0.00
(Free)E + p*V (eV/cell)    -6649.3961
Target enthalpy (eV/cell)    -6643.8634
 
mulliken: Atomic and Orbital Populations:

mulliken: Spin UP 

Species: H.ca                
Atom  Qatom  Qorb
               1s      1s      1Ppy    1Ppz    1Ppx    
   1  0.622   0.406   0.160   0.025   0.018   0.014
   3  0.625   0.421   0.150   0.024   0.018   0.012
   9  0.624   0.421   0.148   0.023   0.018   0.013
  19  0.622   0.409   0.156   0.018   0.018   0.021
  32  0.622   0.409   0.156   0.018   0.018   0.021
  42  0.624   0.420   0.148   0.023   0.019   0.013
  48  0.624   0.419   0.150   0.024   0.020   0.012
  50  0.621   0.403   0.159   0.025   0.020   0.014

Species: C.ca2               
Atom  Qatom  Qorb
               2s      2s      2py     2pz     2px     2py     2pz     2px     
               2Pdxy   2Pdyz   2Pdz2   2Pdxz   2Pdx2-y2
   2  1.991   0.249   0.245   0.231   0.391   0.227   0.236   0.078   0.256
              0.022   0.013   0.002   0.016   0.024
   4  1.872   0.187   0.274   0.091   0.385   0.248   0.336   0.058   0.235
              0.017   0.004   0.001   0.016   0.021
   5  1.976   0.232   0.251   0.216   0.374   0.215   0.255   0.089   0.263
              0.024   0.015   0.002   0.016   0.025
   6  1.998   0.253   0.242   0.235   0.389   0.230   0.241   0.078   0.250
              0.022   0.015   0.002   0.016   0.024
   7  2.002   0.248   0.245   0.234   0.387   0.227   0.248   0.082   0.251
              0.023   0.015   0.002   0.016   0.024
   8  2.003   0.253   0.242   0.237   0.390   0.234   0.234   0.080   0.255
              0.023   0.014   0.001   0.017   0.023
  10  1.875   0.184   0.275   0.082   0.383   0.250   0.344   0.061   0.237
              0.017   0.004   0.001   0.016   0.021
  11  1.974   0.236   0.249   0.215   0.376   0.210   0.255   0.087   0.265
              0.025   0.014   0.002   0.016   0.024
  12  1.996   0.248   0.244   0.223   0.386   0.229   0.253   0.081   0.251
              0.024   0.015   0.002   0.016   0.024
  13  2.002   0.248   0.245   0.230   0.387   0.229   0.250   0.082   0.252
              0.023   0.015   0.002   0.016   0.024
  14  1.997   0.251   0.244   0.233   0.389   0.229   0.247   0.077   0.247
              0.024   0.015   0.002   0.016   0.023
  15  2.002   0.247   0.245   0.229   0.389   0.231   0.249   0.081   0.251
              0.023   0.016   0.002   0.016   0.024
  16  1.997   0.254   0.242   0.240   0.389   0.229   0.236   0.077   0.251
              0.022   0.015   0.001   0.017   0.024
  17  2.006   0.247   0.245   0.231   0.392   0.228   0.250   0.082   0.250
              0.023   0.016   0.002   0.016   0.024
  18  2.008   0.243   0.247   0.217   0.400   0.227   0.253   0.087   0.254
              0.024   0.014   0.002   0.017   0.023
  20  1.877   0.174   0.278   0.086   0.381   0.234   0.341   0.073   0.248
              0.018   0.004   0.001   0.016   0.021
  21  1.892   0.174   0.279   0.174   0.392   0.146   0.281   0.075   0.311
              0.024   0.009   0.001   0.010   0.015
  22  1.991   0.249   0.244   0.225   0.381   0.228   0.253   0.080   0.252
              0.024   0.015   0.002   0.016   0.023
  23  2.002   0.253   0.243   0.231   0.392   0.231   0.247   0.077   0.248
              0.023   0.015   0.002   0.015   0.023
  24  1.995   0.248   0.245   0.229   0.384   0.229   0.251   0.080   0.250
              0.023   0.016   0.002   0.016   0.024
  25  2.004   0.247   0.245   0.229   0.391   0.232   0.250   0.082   0.249
              0.023   0.016   0.002   0.016   0.024
  26  1.998   0.247   0.245   0.229   0.387   0.232   0.249   0.080   0.249
              0.023   0.016   0.002   0.016   0.024
  27  2.005   0.247   0.245   0.229   0.390   0.229   0.251   0.082   0.251
              0.023   0.015   0.002   0.016   0.024
  28  1.997   0.253   0.243   0.231   0.389   0.231   0.246   0.076   0.247
              0.023   0.016   0.002   0.016   0.023
  29  2.007   0.248   0.245   0.225   0.393   0.229   0.253   0.083   0.252
              0.024   0.014   0.002   0.016   0.023
  30  1.884   0.174   0.278   0.173   0.386   0.146   0.280   0.074   0.310
              0.024   0.011   0.001   0.011   0.015
  31  1.902   0.174   0.279   0.087   0.399   0.235   0.342   0.077   0.249
              0.018   0.004   0.001   0.016   0.021
  33  1.966   0.244   0.245   0.217   0.370   0.227   0.252   0.078   0.254
              0.024   0.014   0.002   0.017   0.023
  34  1.995   0.248   0.245   0.231   0.384   0.228   0.250   0.079   0.250
              0.023   0.016   0.002   0.016   0.024
  35  2.003   0.254   0.242   0.240   0.393   0.230   0.236   0.078   0.251
              0.022   0.014   0.001   0.016   0.024
  36  1.998   0.247   0.245   0.229   0.386   0.231   0.249   0.080   0.250
              0.023   0.016   0.002   0.016   0.024
  37  2.003   0.251   0.244   0.234   0.393   0.230   0.247   0.079   0.247
              0.024   0.015   0.002   0.015   0.023
  38  1.998   0.248   0.245   0.230   0.384   0.229   0.250   0.081   0.251
              0.023   0.016   0.002   0.016   0.024
  39  2.002   0.248   0.245   0.224   0.390   0.229   0.253   0.082   0.252
              0.024   0.015   0.002   0.015   0.024
  40  1.968   0.236   0.248   0.215   0.370   0.210   0.254   0.085   0.264
              0.025   0.015   0.002   0.019   0.024
  41  1.934   0.183   0.278   0.083   0.425   0.251   0.345   0.071   0.238
              0.017   0.004   0.001   0.016   0.021
  43  2.000   0.253   0.242   0.237   0.388   0.233   0.234   0.079   0.255
              0.023   0.014   0.001   0.017   0.023
  44  1.997   0.248   0.245   0.234   0.383   0.227   0.248   0.081   0.251
              0.023   0.016   0.002   0.016   0.024
  45  2.005   0.253   0.242   0.235   0.394   0.231   0.241   0.080   0.250
              0.022   0.014   0.002   0.016   0.024
  46  1.969   0.233   0.249   0.216   0.368   0.214   0.254   0.087   0.262
              0.024   0.015   0.002   0.021   0.024
  47  1.942   0.186   0.277   0.093   0.436   0.249   0.337   0.069   0.236
              0.017   0.004   0.001   0.016   0.021
  49  1.983   0.249   0.244   0.230   0.384   0.226   0.235   0.076   0.255
              0.022   0.014   0.002   0.020   0.024

mulliken: Qtot =       88.000

mulliken: Spin DOWN 

Species: H.ca                
Atom  Qatom  Qorb
               1s      1s      1Ppy    1Ppz    1Ppx    
   1  0.621   0.403   0.159   0.025   0.020   0.014
   3  0.624   0.418   0.150   0.024   0.020   0.012
   9  0.624   0.420   0.148   0.023   0.019   0.013
  19  0.622   0.409   0.156   0.018   0.018   0.021
  32  0.622   0.409   0.156   0.018   0.018   0.021
  42  0.624   0.421   0.148   0.024   0.018   0.013
  48  0.625   0.421   0.150   0.024   0.018   0.012
  50  0.622   0.406   0.160   0.025   0.018   0.014

Species: C.ca2               
Atom  Qatom  Qorb
               2s      2s      2py     2pz     2px     2py     2pz     2px     
               2Pdxy   2Pdyz   2Pdz2   2Pdxz   2Pdx2-y2
   2  1.983   0.249   0.244   0.230   0.384   0.227   0.235   0.076   0.255
              0.022   0.014   0.002   0.020   0.024
   4  1.942   0.186   0.277   0.093   0.436   0.249   0.337   0.069   0.236
              0.017   0.004   0.001   0.016   0.021
   5  1.969   0.233   0.249   0.216   0.368   0.214   0.254   0.087   0.262
              0.024   0.015   0.002   0.021   0.025
   6  2.005   0.253   0.242   0.235   0.394   0.231   0.241   0.080   0.250
              0.022   0.014   0.002   0.016   0.024
   7  1.997   0.248   0.245   0.234   0.383   0.227   0.248   0.081   0.251
              0.023   0.016   0.002   0.016   0.024
   8  1.999   0.253   0.242   0.237   0.388   0.233   0.234   0.079   0.254
              0.023   0.014   0.001   0.017   0.023
[...]
        137.39 138.12 138.50 140.93 141.31 141.99 142.22 142.90 146.13 146.84
        147.10 151.74 154.90 155.32 184.69 185.72
  50  2 -22.40 -22.35 -21.98 -21.84 -21.33 -21.07 -20.44 -20.05 -19.79 -19.71
        -19.37 -19.30 -19.23 -18.95 -18.59 -18.41 -18.15 -17.87 -17.76 -17.08
        -16.86 -16.33 -15.93 -15.37 -15.25 -15.11 -14.78 -14.68 -14.40 -14.14
        -14.05 -13.82 -13.68 -13.55 -13.34 -13.24 -12.82 -12.67 -12.53 -12.48
        -11.66 -11.39 -11.30 -11.19 -10.96 -10.92 -10.61 -10.55 -10.47 -10.42
        -10.34 -10.12 -10.10 -10.00  -9.98  -9.93  -9.83  -9.70  -9.63  -9.42
         -9.39  -9.38  -9.18  -9.11  -8.97  -8.64  -8.40  -8.36  -8.29  -8.26
         -7.98  -7.89  -7.81  -7.58  -7.50  -7.50  -7.43  -7.28  -7.09  -7.00
         -6.74  -6.42  -6.35  -6.14  -5.75  -5.51  -4.79  -4.62  -2.57  -2.37
         -1.70  -1.66  -1.26  -1.08  -0.81  -0.32  -0.07   0.05   0.11   0.60
          0.72   1.40   1.83   2.04   2.05   2.56   2.59   3.25   3.63   3.83
          3.96   4.18   4.33   4.38   4.65   4.71   4.91   5.01   5.06   5.26
          5.27   5.35   5.38   5.49   5.75   5.89   6.09   6.22   6.32   6.34
          6.46   6.67   6.87   7.00   7.30   7.54   7.62   7.89   8.38   8.47
          8.50   8.52   8.57   8.58   8.71   8.77   8.94   9.03   9.12   9.26
          9.39   9.45   9.58   9.73  10.05  10.09  10.17  10.27  10.32  10.40
         10.47  10.47  10.58  10.68  10.82  10.83  10.98  11.04  11.05  11.18
         11.24  11.27  11.41  11.49  11.56  11.63  11.69  11.85  11.87  11.95
         12.00  12.05  12.09  12.35  12.38  12.44  12.50  12.51  12.59  12.60
         12.71  12.74  12.77  12.78  12.85  12.92  12.98  13.01  13.02  13.02
         13.06  13.14  13.26  13.34  13.41  13.53  13.82  13.91  14.04  14.13
         14.17  14.24  14.33  14.37  14.43  14.98  15.04  15.52  15.54  15.86
         15.88  16.07  16.39  16.53  16.71  17.08  17.45  17.46  17.62  17.80
         18.05  18.11  18.16  18.23  18.29  18.41  18.44  18.46  18.52  18.66
         18.78  18.79  18.97  19.06  19.18  19.28  19.33  19.39  19.52  19.65
         19.73  19.79  19.90  20.09  20.40  20.54  20.63  20.73  20.79  20.81
         20.90  20.93  21.05  21.19  21.21  21.22  21.26  21.38  21.49  21.49
         21.54  21.66  21.72  21.73  21.88  21.97  22.09  22.12  22.13  22.25
         22.43  22.43  22.55  22.60  22.72  22.74  22.94  22.95  22.98  23.00
         23.19  23.36  23.55  23.74  23.76  23.97  24.10  24.67  24.71  24.74
         24.82  24.96  25.45  25.68  25.88  25.96  26.03  26.08  26.30  26.33
         27.04  27.59  28.32  28.38  28.57  28.62  29.38  29.85  29.98  30.56
         30.76  31.21  31.27  31.36  31.48  31.87  32.03  32.47  32.61  32.62
         32.73  33.09  33.38  33.55  33.99  34.67  34.82  34.90  34.99  35.12
         35.37  35.41  35.56  35.65  35.76  35.81  36.05  36.15  36.53  36.67
         37.11  37.14  37.72  37.84  38.01  38.19  38.93  39.12  39.38  39.47
         40.01  40.66  40.69  40.75  41.67  42.21  42.66  42.79  43.05  43.16
         43.36  43.46  43.80  43.93  44.40  44.51  44.59  44.91  45.00  45.20
         45.69  45.81  45.89  46.48  46.53  46.57  46.82  47.08  47.09  47.45
         47.70  47.73  47.79  47.86  47.94  48.39  48.60  48.79  48.94  49.32
         49.32  49.37  49.43  49.68  49.74  50.27  50.27  50.36  50.51  50.81
         50.98  51.19  51.67  51.79  52.01  52.25  52.31  52.38  52.66  52.74
         52.98  53.07  53.46  53.81  53.98  53.99  54.19  54.23  54.44  54.60
         54.79  54.87  55.30  55.97  56.10  56.19  56.29  56.32  56.57  56.67
         56.77  56.85  57.92  58.03  58.40  59.08  59.25  59.69  59.75  59.79
         59.99  60.11  60.40  60.45  60.52  60.54  61.07  61.25  61.32  61.39
         61.72  62.11  62.29  62.43  62.73  62.79  63.22  64.18  64.28  64.54
         65.98  66.17  66.93  67.93  68.06  68.56  69.64  69.72  70.57  71.18
         71.33  71.62  71.68  71.80  72.12  72.16  72.68  72.76  72.80  72.92
         72.95  73.29  73.60  74.09  74.27  74.29  74.38  74.62  74.87  75.19
         76.14  76.45  76.87  77.03  77.21  77.37  79.20  79.48  80.17  80.77
         80.89  81.24  81.77  82.09  82.23  82.66  83.00  83.13  83.85  85.13
         86.33  86.70  88.43  88.59  88.93  89.39  89.97  90.99  91.72  93.96
         94.28  94.95  96.22  97.01  98.50  98.72  99.39 100.32 100.40 101.05
        102.33 102.61 102.83 103.91 105.09 106.14 107.12 110.71 110.97 112.47
        112.85 113.79 115.21 116.66 116.90 118.44 119.19 120.08 121.17 122.31
        122.91 124.05 125.47 128.01 129.34 130.24 131.99 132.74 135.17 135.86
        137.39 138.12 138.50 140.93 141.31 141.99 142.22 142.90 146.13 146.84
        147.10 151.74 154.90 155.32 184.69 185.72
  51  1 -22.39 -22.35 -21.98 -21.84 -21.33 -21.07 -20.44 -20.05 -19.76 -19.74
        -19.37 -19.29 -19.25 -18.95 -18.59 -18.42 -18.15 -17.87 -17.76 -17.08
        -16.86 -16.33 -15.93 -15.36 -15.26 -15.11 -14.74 -14.72 -14.40 -14.10
        -14.09 -13.82 -13.67 -13.55 -13.32 -13.26 -12.82 -12.67 -12.54 -12.48
        -11.66 -11.39 -11.30 -11.20 -10.95 -10.93 -10.60 -10.56 -10.46 -10.43
        -10.34 -10.12 -10.10  -9.99  -9.98  -9.93  -9.83  -9.70  -9.63  -9.41
         -9.40  -9.38  -9.18  -9.11  -8.97  -8.64  -8.40  -8.33  -8.32  -8.26
         -7.98  -7.88  -7.82  -7.54  -7.54  -7.50  -7.44  -7.27  -7.08  -7.02
         -6.74  -6.41  -6.36  -6.14  -5.75  -5.51  -4.78  -4.62  -2.57  -2.37
         -1.69  -1.67  -1.26  -1.07  -0.82  -0.32  -0.04   0.02   0.11   0.65
          0.66   1.40   1.83   2.04   2.05   2.56   2.59   3.25   3.63   3.83
          3.96   4.18   4.33   4.38   4.65   4.71   4.91   5.01   5.06   5.26
          5.27   5.35   5.38   5.48   5.75   5.89   6.09   6.22   6.32   6.36
          6.45   6.67   6.87   6.99   7.30   7.55   7.62   7.88   8.38   8.47
          8.49   8.52   8.57   8.58   8.71   8.78   8.94   9.04   9.12   9.27
          9.40   9.43   9.58   9.73  10.05  10.11  10.15  10.27  10.31  10.40
         10.47  10.47  10.58  10.68  10.82  10.83  10.98  11.04  11.05  11.18
         11.24  11.27  11.41  11.50  11.57  11.62  11.69  11.85  11.86  11.95
         12.00  12.05  12.08  12.35  12.38  12.45  12.50  12.51  12.59  12.60
         12.72  12.73  12.77  12.78  12.85  12.93  12.99  13.01  13.01  13.01
         13.07  13.13  13.26  13.34  13.41  13.53  13.82  13.91  14.04  14.13
         14.17  14.24  14.33  14.37  14.43  15.01  15.01  15.52  15.54  15.86
         15.88  16.07  16.40  16.51  16.71  17.08  17.45  17.46  17.62  17.80
         18.05  18.11  18.17  18.23  18.29  18.41  18.44  18.46  18.52  18.66
         18.78  18.79  18.97  19.06  19.17  19.28  19.34  19.39  19.52  19.65
         19.73  19.79  19.90  20.09  20.40  20.55  20.63  20.73  20.79  20.82
         20.90  20.93  21.05  21.19  21.21  21.22  21.26  21.38  21.49  21.51
         21.52  21.66  21.72  21.72  21.89  21.96  22.09  22.12  22.13  22.25
         22.43  22.44  22.54  22.60  22.73  22.74  22.94  22.95  22.98  23.00
         23.19  23.36  23.55  23.75  23.76  23.99  24.08  24.67  24.71  24.76
         24.80  24.96  25.45  25.69  25.89  25.95  26.02  26.09  26.29  26.33
         27.04  27.60  28.34  28.38  28.56  28.61  29.38  29.85  29.97  30.56
         30.76  31.21  31.28  31.36  31.48  31.87  32.03  32.51  32.57  32.62
         32.73  33.09  33.37  33.55  33.99  34.67  34.82  34.90  35.03  35.08
         35.38  35.41  35.56  35.65  35.75  35.81  36.05  36.14  36.53  36.67
         37.11  37.14  37.73  37.83  38.01  38.18  38.93  39.12  39.38  39.46
         40.01  40.66  40.69  40.75  41.67  42.21  42.66  42.80  43.05  43.16
         43.36  43.46  43.80  43.94  44.39  44.53  44.56  44.91  45.00  45.20
         45.69  45.81  45.89  46.49  46.53  46.56  46.83  47.08  47.09  47.46
         47.71  47.71  47.80  47.85  47.94  48.39  48.60  48.79  48.94  49.32
         49.34  49.37  49.40  49.68  49.74  50.27  50.28  50.35  50.50  50.81
         50.98  51.20  51.68  51.79  52.00  52.26  52.31  52.39  52.66  52.75
         52.99  53.07  53.46  53.81  53.96  53.99  54.19  54.25  54.43  54.59
         54.79  54.87  55.30  55.97  56.14  56.15  56.28  56.33  56.58  56.65
         56.79  56.83  57.92  58.02  58.39  59.08  59.25  59.69  59.75  59.80
         60.00  60.10  60.45  60.51  60.54  60.54  61.07  61.19  61.26  61.39
         61.72  62.11  62.29  62.43  62.73  62.79  63.22  64.18  64.28  64.54
         65.98  66.17  66.93  67.94  68.05  68.56  69.66  69.71  70.58  71.18
         71.33  71.62  71.68  71.80  72.12  72.16  72.68  72.77  72.80  72.91
         72.95  73.29  73.60  74.10  74.27  74.27  74.38  74.62  74.87  75.19
         76.15  76.45  76.87  77.05  77.19  77.36  79.20  79.48  80.18  80.79
         80.88  81.23  81.81  82.09  82.18  82.68  83.04  83.07  83.83  85.14
         86.33  86.70  88.51  88.54  88.93  89.38  89.99  90.95  91.72  93.97
         94.28  94.95  96.22  97.01  98.49  98.72  99.40 100.32 100.41 101.03
        102.36 102.58 102.84 103.90 105.10 106.15 107.11 110.75 110.94 112.61
        112.85 113.72 115.16 116.67 116.89 118.44 119.51 119.81 121.24 122.17
        123.01 123.97 125.44 128.00 129.34 130.23 132.06 132.69 135.38 135.76
        137.47 138.18 138.24 140.96 141.32 141.96 142.21 142.89 146.15 146.84
        147.08 151.73 154.95 155.27 185.10 185.33
  51  2 -22.39 -22.35 -21.98 -21.84 -21.33 -21.07 -20.44 -20.05 -19.76 -19.74
        -19.37 -19.29 -19.25 -18.95 -18.59 -18.42 -18.15 -17.87 -17.76 -17.08
        -16.86 -16.33 -15.93 -15.36 -15.26 -15.11 -14.74 -14.72 -14.40 -14.10
        -14.09 -13.82 -13.67 -13.55 -13.32 -13.26 -12.82 -12.67 -12.54 -12.48
        -11.66 -11.39 -11.30 -11.20 -10.95 -10.93 -10.60 -10.56 -10.46 -10.43
        -10.34 -10.12 -10.10  -9.99  -9.98  -9.93  -9.83  -9.70  -9.63  -9.41
         -9.40  -9.38  -9.18  -9.11  -8.97  -8.64  -8.40  -8.33  -8.32  -8.26
         -7.98  -7.88  -7.82  -7.54  -7.54  -7.50  -7.44  -7.27  -7.08  -7.02
         -6.74  -6.41  -6.36  -6.14  -5.75  -5.51  -4.78  -4.62  -2.57  -2.37
         -1.69  -1.67  -1.26  -1.07  -0.82  -0.32  -0.04   0.02   0.11   0.65
          0.66   1.40   1.83   2.04   2.05   2.56   2.59   3.25   3.63   3.83
          3.96   4.18   4.33   4.38   4.65   4.71   4.91   5.01   5.06   5.26
          5.27   5.35   5.38   5.48   5.75   5.89   6.09   6.22   6.32   6.36
          6.45   6.67   6.87   6.99   7.30   7.55   7.62   7.88   8.38   8.47
          8.49   8.52   8.57   8.58   8.71   8.78   8.94   9.04   9.12   9.27
          9.40   9.43   9.58   9.73  10.05  10.11  10.15  10.27  10.31  10.40
         10.47  10.47  10.58  10.68  10.82  10.83  10.98  11.04  11.05  11.18
         11.24  11.27  11.41  11.50  11.57  11.62  11.69  11.85  11.86  11.95
         12.00  12.05  12.08  12.35  12.38  12.45  12.50  12.51  12.59  12.60
         12.72  12.73  12.77  12.78  12.85  12.93  12.99  13.01  13.01  13.01
         13.07  13.13  13.26  13.34  13.41  13.53  13.82  13.91  14.04  14.13
         14.17  14.24  14.33  14.37  14.43  15.01  15.01  15.52  15.54  15.86
         15.88  16.07  16.40  16.51  16.71  17.08  17.45  17.46  17.62  17.80
         18.05  18.11  18.17  18.23  18.29  18.41  18.44  18.46  18.52  18.66
         18.78  18.79  18.97  19.06  19.17  19.28  19.34  19.39  19.52  19.65
         19.73  19.79  19.90  20.09  20.40  20.55  20.63  20.73  20.79  20.82
         20.90  20.93  21.05  21.19  21.21  21.22  21.26  21.38  21.49  21.51
         21.52  21.66  21.72  21.72  21.89  21.96  22.09  22.12  22.13  22.25
         22.43  22.44  22.54  22.60  22.73  22.74  22.94  22.95  22.98  23.00
         23.19  23.36  23.55  23.75  23.76  23.99  24.08  24.67  24.71  24.76
         24.80  24.96  25.45  25.69  25.89  25.95  26.02  26.09  26.29  26.33
         27.04  27.60  28.34  28.38  28.56  28.61  29.38  29.85  29.97  30.56
         30.76  31.21  31.27  31.36  31.48  31.87  32.03  32.51  32.57  32.62
         32.73  33.09  33.37  33.55  33.99  34.67  34.82  34.90  35.03  35.08
         35.38  35.41  35.56  35.65  35.75  35.81  36.05  36.14  36.53  36.67
         37.11  37.14  37.73  37.83  38.01  38.18  38.93  39.12  39.38  39.46
         40.01  40.66  40.69  40.75  41.67  42.21  42.66  42.80  43.05  43.16
         43.36  43.46  43.80  43.94  44.39  44.53  44.56  44.91  45.00  45.20
         45.69  45.81  45.89  46.49  46.53  46.57  46.83  47.08  47.09  47.46
         47.71  47.71  47.80  47.85  47.94  48.39  48.60  48.79  48.94  49.32
         49.34  49.37  49.40  49.68  49.74  50.27  50.28  50.35  50.50  50.81
         50.98  51.20  51.68  51.79  52.00  52.26  52.31  52.39  52.66  52.75
         52.99  53.07  53.46  53.81  53.96  53.99  54.19  54.25  54.43  54.59
         54.79  54.87  55.30  55.97  56.14  56.15  56.28  56.33  56.58  56.65
         56.79  56.83  57.92  58.02  58.39  59.08  59.25  59.69  59.75  59.80
         60.00  60.10  60.45  60.51  60.54  60.54  61.07  61.19  61.26  61.39
         61.72  62.11  62.29  62.43  62.73  62.79  63.22  64.18  64.28  64.54
         65.98  66.17  66.93  67.94  68.05  68.56  69.66  69.71  70.58  71.18
         71.33  71.62  71.68  71.80  72.12  72.16  72.68  72.77  72.80  72.91
         72.95  73.29  73.60  74.10  74.27  74.27  74.38  74.62  74.87  75.19
         76.15  76.45  76.87  77.05  77.19  77.36  79.20  79.48  80.18  80.79
         80.88  81.23  81.81  82.09  82.18  82.68  83.04  83.07  83.83  85.14
         86.33  86.70  88.51  88.54  88.93  89.38  89.99  90.95  91.72  93.97
         94.28  94.95  96.22  97.01  98.49  98.72  99.40 100.32 100.41 101.03
        102.36 102.58 102.84 103.90 105.10 106.15 107.11 110.75 110.94 112.61
        112.85 113.72 115.16 116.67 116.89 118.44 119.51 119.81 121.24 122.17
        123.01 123.97 125.44 128.00 129.34 130.23 132.06 132.69 135.38 135.76
        137.47 138.18 138.24 140.96 141.32 141.96 142.21 142.89 146.15 146.84
        147.08 151.73 154.95 155.27 185.10 185.33
siesta: Fermi energy =      -3.644561 eV

siesta: Program's energy decomposition (eV):
siesta: Ebs     =     -2195.798372
siesta: Eions   =     10885.044575
siesta: Ena     =      2279.772403
siesta: Ekin    =      4755.124797
siesta: Enl     =      -623.338617
siesta: Eso     =         0.000000
siesta: Eldau   =         0.000000
siesta: DEna    =      -124.675040
siesta: DUscf   =        12.221050
siesta: DUext   =         0.000000
siesta: Enegf   =         0.000000
siesta: Exc     =     -2058.762318
siesta: eta*DQ  =         0.000000
siesta: Emadel  =         0.000000
siesta: Emeta   =         0.000000
siesta: Emolmec =         0.000000
siesta: Ekinion =         0.000000
siesta: Eharris =     -6644.702299
siesta: Etot    =     -6644.702299
siesta: FreeEng =     -6644.708760

siesta: Final energy (eV):
siesta:  Band Struct. =   -2195.798372
siesta:       Kinetic =    4755.124797
siesta:       Hartree =   63092.183017
siesta:       Eldau   =       0.000000
siesta:       Eso     =       0.000000
siesta:    Ext. field =       0.000000
siesta:       Enegf   =       0.000000
siesta:   Exch.-corr. =   -2058.762318
siesta:  Ion-electron = -130443.681328
siesta:       Ion-ion =   58010.433532
siesta:       Ekinion =       0.000000
siesta:         Total =   -6644.702299
siesta:         Fermi =      -3.644561

siesta: Stress tensor (static) (eV/Ang**3):
siesta:     0.000220   -0.000001   -0.000000
siesta:    -0.000001   -0.000001   -0.000000
siesta:    -0.000000   -0.000000    0.000003

siesta: Cell volume =       8870.000000 Ang**3

siesta: Pressure (static):
siesta:                Solid            Molecule  Units
siesta:          -0.00000081         -0.00000079  Ry/Bohr**3
siesta:          -0.00007420         -0.00007268  eV/Ang**3
siesta:          -0.11888049         -0.11645363  kBar
(Free)E+ p_basis*V_orbitals  =       -6630.361225
(Free)Eharris+ p_basis*V_orbitals  =       -6630.361225

siesta: Total spin polarization (Qup-Qdown) =    0.000007

siesta: Electric dipole (a.u.)  =   -0.000000   -0.000005   -0.000000
siesta: Electric dipole (Debye) =   -0.000000   -0.000013   -0.000000

Hirshfeld Net Atomic Populations:
Atom #    Qatom  Species
     1    0.026  H.ca                
     2    0.004  C.ca2               
     3    0.029  H.ca                
     4   -0.037  C.ca2               
     5    0.004  C.ca2               
     6    0.000  C.ca2               
     7    0.001  C.ca2               
     8   -0.000  C.ca2               
     9    0.033  H.ca                
    10   -0.036  C.ca2               
    11    0.005  C.ca2               
    12    0.002  C.ca2               
    13    0.000  C.ca2               
    14    0.000  C.ca2               
    15   -0.000  C.ca2               
    16   -0.001  C.ca2               
    17   -0.001  C.ca2               
    18    0.005  C.ca2               
    19    0.030  H.ca                
    20   -0.032  C.ca2               
    21   -0.034  C.ca2               
    22    0.002  C.ca2               
    23    0.000  C.ca2               
    24   -0.000  C.ca2               
    25   -0.001  C.ca2               
    26   -0.001  C.ca2               
    27   -0.000  C.ca2               
    28    0.000  C.ca2               
    29    0.002  C.ca2               
    30   -0.034  C.ca2               
    31   -0.032  C.ca2               
    32    0.030  H.ca                
    33    0.005  C.ca2               
    34   -0.001  C.ca2               
    35   -0.001  C.ca2               
    36   -0.000  C.ca2               
    37    0.000  C.ca2               
    38    0.000  C.ca2               
    39    0.002  C.ca2               
    40    0.005  C.ca2               
    41   -0.036  C.ca2               
    42    0.033  H.ca                
    43   -0.000  C.ca2               
    44    0.001  C.ca2               
    45    0.000  C.ca2               
    46    0.004  C.ca2               
    47   -0.037  C.ca2               
    48    0.029  H.ca                
    49    0.004  C.ca2               
    50    0.026  H.ca                

Voronoi Net Atomic Populations:
Atom #    Qatom  Species
     1    0.005  H.ca                
     2    0.001  C.ca2               
     3    0.005  H.ca                
     4   -0.013  C.ca2               
     5    0.002  C.ca2               
     6    0.002  C.ca2               
     7    0.001  C.ca2               
     8   -0.001  C.ca2               
     9    0.008  H.ca                
    10   -0.012  C.ca2               
    11    0.005  C.ca2               
    12    0.002  C.ca2               
    13   -0.000  C.ca2               
    14    0.001  C.ca2               
    15    0.002  C.ca2               
    16   -0.002  C.ca2               
    17   -0.005  C.ca2               
    18    0.007  C.ca2               
    19    0.011  H.ca                
    20   -0.006  C.ca2               
    21   -0.008  C.ca2               
    22    0.005  C.ca2               
    23    0.005  C.ca2               
    24   -0.003  C.ca2               
    25   -0.001  C.ca2               
    26    0.001  C.ca2               
    27   -0.000  C.ca2               
    28   -0.003  C.ca2               
    29    0.003  C.ca2               
    30   -0.012  C.ca2               
    31   -0.007  C.ca2               
    32    0.006  H.ca                
    33   -0.002  C.ca2               
    34    0.000  C.ca2               
    35   -0.003  C.ca2               
    36   -0.001  C.ca2               
    37    0.002  C.ca2               
    38   -0.001  C.ca2               
    39    0.000  C.ca2               
    40    0.006  C.ca2               
    41   -0.011  C.ca2               
    42    0.008  H.ca                
    43   -0.001  C.ca2               
    44    0.002  C.ca2               
    45    0.002  C.ca2               
    46    0.004  C.ca2               
    47   -0.015  C.ca2               
    48    0.005  H.ca                
    49    0.002  C.ca2               
    50    0.005  H.ca                
>> End of run:  16-APR-2018  17:15:45
Job completed
Job completed
