Siesta Version  : siesta-4.1--852
Architecture    : unknown
Compiler version: ifort (IFORT) 17.0.4 20170411
Compiler flags  : mpiifort -O1 -xHost -mp1 -fpp -ftz -I/scicomp/easybuild/CentOS/7.3.1611/Hasweell/software/imkl/2017.3.196-iimpi-2017b/mkl/include -I/scratch/scicomp/easybuild/CentOS/7.3.1611/Haswell/software/netCDF-Fortran/4.4.4-intel-2017b/include -I/scratch/scicomp/easybuild/CentOS/7.3.1611/Haswell/software/netCDF/4.4.1.1-intel-2017b/include
PP flags        :  -DFC_HAVE_ABORT -DMPI -DCDF -DNCDF -DNCDF_4 -DGRID_DP -DNCDF_PARALLEL
Libraries       : libncdf.a libfdict.a -L/scratch/scicomp/easybuild/CentOS/7.3.1611/Haswell/sofftware/netCDF-Fortran/4.4.4-intel-2017b/lib -lnetcdff -L/scratch/scicomp/easybuild/CentOS/7.3.1611/Haswell/software/cURL/7.56.0-GCCcore-6.4.0/lib -lcurl -L/scratch/scicomp/easybuild/CentOS/7.3.1611/Haswell/software/netCDF/4.4.1.1-intel-2017b/lib64 -lnetcdf -L/scratch/scicomp/easybuild/CentOS/7.3.1611/Haswell/software/HDF5/1.10.1-intel-2017b/lib -lhdf5hl_fortran -lhdf5_fortran -lhdf5_hl -lhdf5 -L/scratch/scicomp/easybuild/CentOS/7.3.1611/Haswell/software/Szip/2.1.1-GCCcore-6.4.0/lib -lsz -L/scratch/scicomp/easybuild/CentOS/7.3.1611/Haswell/software/zlib/1.2.11-GCCcore-6.4.0/lib -lz /scicomp/easybuild/CentOS/7.3.1611/Haswell/software/imkl/2017.3.196-iimpi-2017b/mkl/lib/intel64/libmkl_scalapack_lp64.a -Wl,--start-group /scicomp/easybuild/CentOS/7.3.1611/Haswell/software/imkl/2017.3.196-iimpi-2017b/mkl/lib/intel64/libmkl_intel_lp64.a /scicomp/easybuild/CentOS/7.3.1611/Haswell/software/imkl/2017.3.196-iimpi-2017b/mkl/lib/intel64/libmkl_sequential.a /scicomp/easybuild/CentOS/7.3.1611/Haswell/software/imkl/2017.3.196-iimpi-2017b/mkl/lib/intel64/libmkl_core.a /scicomp/easybuild/CentOS/7.3.1611/Haswell/software/imkl/2017.3.196-iimpi-2017b/mkl/lib/intel64/libmkl_blacs_intelmpi_lp64.a -Wl,--end-group -lpthread -lm -ldl
PARALLEL version
NetCDF support
NetCDF-4 support
NetCDF-4 MPI-IO support

* Running on 24 nodes in parallel
>> Start of run:  17-APR-2018  16:14:48

                           ***********************       
                           *  WELCOME TO SIESTA  *       
                           ***********************       

reinit: Reading from standard input
reinit: Dumped input in INPUT_TMP.02705
************************** Dump of input data file ****************************
SystemTitle molecule
SystemLabel molecule
SolutionMethod     diagon
TS.HS.Save         true
MD.TypeOfRun  CG
MD.TypeOfRun  Broyden
MD.Broyden.Cycle.On.Maxit F
MD.NumCGsteps  1000
MD.MaxForceTol 0.002 eV/Ang
Diag.ParallelOverK true
%block kgrid_Monkhorst_Pack
 100    0    0    0.0
  0    1    0    0.0
  0    0    1    0.0
%endblock kgrid_Monkhorst_Pack
MaxSCFIterations      3000
SCFMustConverge       true
DM.Tolerance          1.d-5
DM.UseSaveDM          true
DM.NumberPulay	      7
DM.MixingWeight       0.1
MD.UseSaveXV          true
XC.functional         LDA
XC.authors     	      CA
MeshCutoff            400. Ry
PAO.BasisSize   DZP
PAO.BasisType   split
%block ChemicalSpeciesLabel
    1   1 H.ca
    2   6 C.ca2
%endblock ChemicalSpeciesLabel
%include STRUCT.fdf
SpinPolarized   true
#FixSpin  true
#Spin.Fix true
#Spin.Total 0
#TotalSpin  0
%block DM.InitSpin
29   1.
10  -1.
%endblock DM.InitSpin
WriteMullikenPop 1
WriteHirshfeldPop true
WriteVoronoiPop true
WriteEigenvalues true
WriteWaveFunctions true
************************** End of input data file *****************************

reinit: -----------------------------------------------------------------------
reinit: System Name: 
reinit: -----------------------------------------------------------------------
reinit: System Label: molecule
reinit: -----------------------------------------------------------------------

initatom: Reading input for the pseudopotentials and atomic orbitals ----------
Species number:   1 Atomic number:    1 Label: H.ca
Species number:   2 Atomic number:    6 Label: C.ca2
 
Ground state valence configuration:   1s01
Reading pseudopotential information in formatted form from H.ca.psf

Pseudopotential generated from a relativistic atomic calculation

Valence configuration for pseudopotential generation:
1s( 1.00) rc: 1.31
2p( 0.00) rc: 1.31
3d( 0.00) rc: 0.37
4f( 0.00) rc: 1.31
Ground state valence configuration:   2s02  2p02
Reading pseudopotential information in formatted form from C.ca2.psf

Pseudopotential generated from a relativistic atomic calculation

Valence configuration for pseudopotential generation:
2s( 2.00) rc: 1.54
2p( 2.00) rc: 1.54
3d( 0.00) rc: 1.54
4f( 0.00) rc: 1.54
For H.ca, standard SIESTA heuristics set lmxkb to 2
 (one more than the basis l, including polarization orbitals).
Use PS.lmax or PS.KBprojectors blocks to override.
For C.ca2, standard SIESTA heuristics set lmxkb to 3
 (one more than the basis l, including polarization orbitals).
Use PS.lmax or PS.KBprojectors blocks to override.

<basis_specs>
===============================================================================
H.ca                 Z=   1    Mass=  1.0100        Charge= 0.17977+309
Lmxo=0 Lmxkb= 2    BasisType=split      Semic=F
L=0  Nsemic=0  Cnfigmx=1
          n=1  nzeta=2  polorb=1
            splnorm:   0.15000    
               vcte:    0.0000    
               rinn:    0.0000    
               qcoe:    0.0000    
               qyuk:    0.0000    
               qwid:   0.10000E-01
                rcs:    0.0000      0.0000    
            lambdas:    1.0000      1.0000    
-------------------------------------------------------------------------------
L=0  Nkbl=1  erefs: 0.17977+309
L=1  Nkbl=1  erefs: 0.17977+309
L=2  Nkbl=1  erefs: 0.17977+309
===============================================================================
</basis_specs>

atom: Called for H.ca                  (Z =   1)

read_vps: Pseudopotential generation method:
read_vps: ATM3.3.2  Troullier-Martins                       
Total valence charge:    1.00000

xc_check: Exchange-correlation functional:
xc_check: Ceperley-Alder
V l=0 = -2*Zval/r beyond r=  1.2977
V l=1 = -2*Zval/r beyond r=  1.2815
V l=2 = -2*Zval/r beyond r=  1.1307
All V_l potentials equal beyond r=  1.2977
This should be close to max(r_c) in ps generation
All pots = -2*Zval/r beyond r=  1.2977

VLOCAL1: 99.0% of the norm of Vloc inside     25.776 Ry
VLOCAL1: 99.9% of the norm of Vloc inside     58.745 Ry
atom: Maximum radius for 4*pi*r*r*local-pseudopot. charge    1.52711
atom: Maximum radius for r*vlocal+2*Zval:    1.28155
GHOST: No ghost state for L =  0
GHOST: No ghost state for L =  1
GHOST: No ghost state for L =  2

KBgen: Kleinman-Bylander projectors: 
   l= 0   rc=  1.452513   el= -0.467311   Ekb= -1.940806   kbcos= -0.353010
   l= 1   rc=  1.752576   el=  0.001430   Ekb= -0.484365   kbcos= -0.024070
   l= 2   rc=  1.774652   el=  0.002365   Ekb= -0.503986   kbcos= -0.001615

KBgen: Total number of  Kleinman-Bylander projectors:    9
atom: -------------------------------------------------------------------------

atom: SANKEY-TYPE ORBITALS:
atom: Selected multiple-zeta basis: split     

SPLIT: Orbitals with angular momentum L= 0

SPLIT: Basis orbitals for state 1s

SPLIT: PAO cut-off radius determined from an
SPLIT: energy shift=  0.020000 Ry

   izeta = 1
                 lambda =    1.000000
                     rc =    4.828263
                 energy =   -0.449360
                kinetic =    0.925772
    potential(screened) =   -1.375132
       potential(ionic) =   -1.911259

   izeta = 2
                 rmatch =    3.854947
              splitnorm =    0.150000
                 energy =   -0.336131
                kinetic =    1.498125
    potential(screened) =   -1.834256
       potential(ionic) =   -2.406171

POLgen: Perturbative polarization orbital with L=  1

POLgen: Polarization orbital for state 1s

   izeta = 1
                     rc =    4.828263
                 energy =    0.707058
                kinetic =    1.398648
    potential(screened) =   -0.691590
       potential(ionic) =   -1.171958
atom: Total number of Sankey-type orbitals:  5

atm_pop: Valence configuration (for local Pseudopot. screening):
 1s( 1.00)                                                            
Vna: chval, zval:    1.00000   1.00000

Vna:  Cut-off radius for the neutral-atom potential:   4.828263

atom: _________________________________________________________________________

<basis_specs>
===============================================================================
C.ca2                Z=   6    Mass=  12.010        Charge= 0.17977+309
Lmxo=1 Lmxkb= 3    BasisType=split      Semic=F
L=0  Nsemic=0  Cnfigmx=2
          n=1  nzeta=2  polorb=0
            splnorm:   0.15000    
               vcte:    0.0000    
               rinn:    0.0000    
               qcoe:    0.0000    
               qyuk:    0.0000    
               qwid:   0.10000E-01
                rcs:    0.0000      0.0000    
            lambdas:    1.0000      1.0000    
L=1  Nsemic=0  Cnfigmx=2
          n=1  nzeta=2  polorb=1
            splnorm:   0.15000    
               vcte:    0.0000    
               rinn:    0.0000    
               qcoe:    0.0000    
               qyuk:    0.0000    
               qwid:   0.10000E-01
                rcs:    0.0000      0.0000    
            lambdas:    1.0000      1.0000    
-------------------------------------------------------------------------------
L=0  Nkbl=1  erefs: 0.17977+309
L=1  Nkbl=1  erefs: 0.17977+309
L=2  Nkbl=1  erefs: 0.17977+309
L=3  Nkbl=1  erefs: 0.17977+309
===============================================================================
</basis_specs>

atom: Called for C.ca2                 (Z =   6)

read_vps: Pseudopotential generation method:
read_vps: ATM3.3.2  Troullier-Martins                       
Total valence charge:    4.00000

xc_check: Exchange-correlation functional:
xc_check: Ceperley-Alder
V l=0 = -2*Zval/r beyond r=  1.5227
V l=1 = -2*Zval/r beyond r=  1.5227
V l=2 = -2*Zval/r beyond r=  1.5227
V l=3 = -2*Zval/r beyond r=  1.5038
All V_l potentials equal beyond r=  1.5227
This should be close to max(r_c) in ps generation
All pots = -2*Zval/r beyond r=  1.5227

VLOCAL1: 99.0% of the norm of Vloc inside     18.722 Ry
VLOCAL1: 99.9% of the norm of Vloc inside     42.668 Ry
atom: Maximum radius for 4*pi*r*r*local-pseudopot. charge    1.83678
atom: Maximum radius for r*vlocal+2*Zval:    1.58088
GHOST: No ghost state for L =  0
GHOST: No ghost state for L =  1
GHOST: No ghost state for L =  2
GHOST: No ghost state for L =  3

KBgen: Kleinman-Bylander projectors: 
   l= 0   rc=  1.769164   el= -1.002383   Ekb=  4.944706   kbcos=  0.320005
   l= 1   rc=  1.769164   el= -0.398438   Ekb= -4.111874   kbcos= -0.367023
   l= 2   rc=  2.107589   el=  0.002326   Ekb= -1.050436   kbcos= -0.009341
   l= 3   rc=  2.358593   el=  0.003420   Ekb= -0.444500   kbcos= -0.001214

KBgen: Total number of  Kleinman-Bylander projectors:   16
atom: -------------------------------------------------------------------------

atom: SANKEY-TYPE ORBITALS:
atom: Selected multiple-zeta basis: split     

SPLIT: Orbitals with angular momentum L= 0

SPLIT: Basis orbitals for state 2s

SPLIT: PAO cut-off radius determined from an
SPLIT: energy shift=  0.020000 Ry

   izeta = 1
                 lambda =    1.000000
                     rc =    4.191849
                 energy =   -0.984359
                kinetic =    0.881234
    potential(screened) =   -1.865594
       potential(ionic) =   -5.477335

   izeta = 2
                 rmatch =    3.431921
              splitnorm =    0.150000
                 energy =   -0.853663
                kinetic =    1.298382
    potential(screened) =   -2.152045
       potential(ionic) =   -5.997528

SPLIT: Orbitals with angular momentum L= 1

SPLIT: Basis orbitals for state 2p

SPLIT: PAO cut-off radius determined from an
SPLIT: energy shift=  0.020000 Ry

   izeta = 1
                 lambda =    1.000000
                     rc =    4.870301
                 energy =   -0.378923
                kinetic =    2.540340
    potential(screened) =   -2.919263
       potential(ionic) =   -6.428536

   izeta = 2
                 rmatch =    3.475094
              splitnorm =    0.150000
                 energy =   -0.214881
                kinetic =    3.815219
    potential(screened) =   -4.030100
       potential(ionic) =   -7.921348

POLgen: Perturbative polarization orbital with L=  2

POLgen: Polarization orbital for state 2p

   izeta = 1
                     rc =    4.870301
                 energy =    1.281120
                kinetic =    2.631157
    potential(screened) =   -1.350037
       potential(ionic) =   -4.295491
atom: Total number of Sankey-type orbitals: 13

atm_pop: Valence configuration (for local Pseudopot. screening):
 2s( 2.00)                                                            
 2p( 2.00)                                                            
Vna: chval, zval:    4.00000   4.00000

Vna:  Cut-off radius for the neutral-atom potential:   4.870301

atom: _________________________________________________________________________

prinput: Basis input ----------------------------------------------------------

PAO.BasisType split     

%block ChemicalSpeciesLabel
    1    1 H.ca                    # Species index, atomic number, species label
    2    6 C.ca2                   # Species index, atomic number, species label
%endblock ChemicalSpeciesLabel

%block PAO.Basis                 # Define Basis set
H.ca                  1                    # Species label, number of l-shells
 n=1   0   2 P   1                   # n, l, Nzeta, Polarization, NzetaPol
   4.828      3.855   
   1.000      1.000   
C.ca2                 2                    # Species label, number of l-shells
 n=2   0   2                         # n, l, Nzeta 
   4.192      3.432   
   1.000      1.000   
 n=2   1   2 P   1                   # n, l, Nzeta, Polarization, NzetaPol
   4.870      3.475   
   1.000      1.000   
%endblock PAO.Basis

prinput: ----------------------------------------------------------------------

Dumping basis to NetCDF file H.ca.ion.nc
Dumping basis to NetCDF file C.ca2.ion.nc
coor:   Atomic-coordinates input format  =     Cartesian coordinates
coor:                                          (in Angstroms)

ioxv: Reading coordinates and velocities from file
! Info in XV file prevails over previous structure input

siesta: Atomic coordinates (Bohr) and species
siesta:     21.95076  11.61966  18.89727  1        1
siesta:     20.44329  15.42409  18.89727  2        2
siesta:     26.36549  10.51717  18.89727  1        3
siesta:     22.38167  13.65858  18.89727  2        4
siesta:     24.94410  14.35313  18.89727  2        5
siesta:     21.08049  18.05688  18.89727  2        6
siesta:     23.65479  18.80799  18.89727  2        7
siesta:     22.38378  23.26627  18.89727  2        8
siesta:     30.84751   9.38753  18.89727  1        9
siesta:     26.87125  12.54242  18.89727  2       10
siesta:     29.41234  13.23322  18.89727  2       11
siesta:     25.59699  16.97328  18.89727  2       12
siesta:     28.16959  17.70101  18.89727  2       13
siesta:     24.30630  21.41992  18.89727  2       14
siesta:     26.89324  22.15115  18.89727  2       15
siesta:     23.03425  25.88620  18.89727  2       16
siesta:     25.61416  26.61436  18.89727  2       17
siesta:     24.31214  31.07506  18.89727  2       18
siesta:     20.39554  31.86549  18.89727  1       19
siesta:     31.36902  11.40584  18.89727  2       20
siesta:     33.85091  12.11496  18.89727  2       21
siesta:     30.09203  15.84480  18.89727  2       22
siesta:     32.67997  16.55815  18.89727  2       23
siesta:     28.82047  20.30903  18.89727  2       24
siesta:     31.41029  21.02773  18.89727  2       25
siesta:     27.54412  24.76233  18.89727  2       26
siesta:     30.12193  25.47901  18.89727  2       27
siesta:     26.28885  29.24239  18.89727  2       28
siesta:     28.84561  29.92687  18.89727  2       29
siesta:     35.31226  10.63261  18.89727  1       30
siesta:     34.58379  14.68815  18.89727  2       31
siesta:     33.33162  19.17705  18.89727  2       32
siesta:     35.91554  19.91099  18.89727  2       33
siesta:     32.06026  23.63854  18.89727  2       34
siesta:     34.63683  24.37087  18.89727  2       35
siesta:     30.78131  28.10804  18.89727  2       36
siesta:     33.35348  28.79745  18.89727  2       37
siesta:     24.88773  33.09844  18.89727  1       38
siesta:     36.56612  22.52019  18.89727  2       39
siesta:     35.27154  26.99936  18.89727  2       40
siesta:     37.87919  27.75295  18.89727  2       41
siesta:     29.36857  31.96141  18.89727  1       42
siesta:     38.58627  30.34315  18.89727  2       43
siesta:     33.78346  30.85478  18.89727  1       44

siesta: System type = chain     

initatomlists: Number of atoms, orbitals, and projectors:     44   508   648

siesta: ******************** Simulation parameters ****************************
siesta:
siesta: The following are some of the parameters of the simulation.
siesta: A complete list of the parameters used, including default values,
siesta: can be found in file out.fdf
siesta:
redata: Spin configuration                          = collinear
redata: Number of spin components                   = 2
redata: Time-Reversal Symmetry                      = T
redata: Spin-spiral                                 = F
redata: Long output                                 =   F
redata: Number of Atomic Species                    =        2
redata: Charge density info will appear in .RHO file
redata: Write Mulliken Pop.                         = Atomic and Orbital charges
redata: Mesh Cutoff                                 =   400.0000 Ry
redata: Net charge of the system                    =     0.0000 |e|
redata: Min. number of SCF Iter                     =        0
redata: Max. number of SCF Iter                     =     3000
redata: SCF convergence failure will abort job
redata: SCF mix quantity                            = Hamiltonian
redata: Mix DM or H after convergence               =   F
redata: Recompute H after scf cycle                 =   F
redata: Mix DM in first SCF step                    =   T
redata: Write Pulay info on disk                    =   F
redata: New DM Mixing Weight                        =     0.1000
redata: New DM Occupancy tolerance                  = 0.000000000001
redata: No kicks to SCF
redata: DM Mixing Weight for Kicks                  =     0.5000
redata: Require Harris convergence for SCF          =   F
redata: Harris energy tolerance for SCF             =     0.000100 eV
redata: Require DM convergence for SCF              =   T
redata: DM tolerance for SCF                        =     0.000010
redata: Require EDM convergence for SCF             =   F
redata: EDM tolerance for SCF                       =     0.001000 eV
redata: Require H convergence for SCF               =   T
redata: Hamiltonian tolerance for SCF               =     0.001000 eV
redata: Require (free) Energy convergence for SCF   =   F
redata: (free) Energy tolerance for SCF             =     0.000100 eV
redata: Antiferro initial spin density              =   F
redata: Using Saved Data (generic)                  =   F
redata: Use continuation files for DM               =   T
redata: Neglect nonoverlap interactions             =   F
redata: Method of Calculation                       = Diagonalization
redata: Electronic Temperature                      =   299.9869 K
redata: Fix the spin of the system                  =   F
redata: Dynamics option                             = CG coord. optimization
redata: Variable cell                               =   F
redata: Use continuation files for CG               =   F
redata: Max atomic displ per move                   =     0.1058 Ang
redata: Maximum number of CG moves                  =     1000
redata: Force tolerance                             =     0.0020 eV/Ang
mix.SCF: Pulay mixing                            = Pulay
mix.SCF:    Variant                              = stable
mix.SCF:    History steps                        = 7
mix.SCF:    Linear mixing weight                 =     0.100000
mix.SCF:    Mixing weight                        =     0.100000
mix.SCF:    SVD condition                        = 0.1000E-07
mix.SCF: Spin-component mixing                   all
redata: Save all siesta data in one NC              =   F
redata: ***********************************************************************

%block SCF.Mixers
  Pulay
%endblock SCF.Mixers

%block SCF.Mixer.Pulay
  # Mixing method
  method pulay
  variant stable

  # Mixing options
  weight 0.1000
  weight.linear 0.1000
  history 7
%endblock SCF.Mixer.Pulay
 
DM_history_depth set to one: no extrapolation allowed by default for geometry relaxation
Size of DM history Fstack: 1
Total number of electrons:   152.000000
Total ionic charge:   152.000000

* ProcessorY, Blocksize:    4  21


* Orbital distribution balance (max,min):    25    21

k-point displ. along   1 input, could be:     0.00    0.50
 Kpoints in:           51 . Kpoints trimmed:           51

siesta: k-grid: Number of k-points =    51
siesta: k-grid: Cutoff (effective) =    10.000 Ang
siesta: k-grid: Supercell and displacements
siesta: k-grid:  100   0   0      0.000
siesta: k-grid:    0   1   0      0.000
siesta: k-grid:    0   0   1      0.000
 
diag: Algorithm                                     = D&C
diag: Parallel over k                               =   T
diag: Use parallel 2D distribution                  =   T
diag: Parallel block-size                           = 21
diag: Parallel distribution                         =     4 x     6
diag: Used triangular part                          = Lower
diag: Absolute tolerance                            =  0.100E-15
diag: Orthogonalization factor                      =  0.100E-05
diag: Memory factor                                 =  1.0000

superc: Internal auxiliary supercell:     3 x     1 x     1  =       3
superc: Number of atoms, orbitals, and projectors:    132   1524   1944
 
 
ts: **************************************************************
ts: Save H and S matrices                           =    T
ts: Save DM and EDM matrices                        =    F
ts: Fix Hartree potential                           =    F
ts: Only save the overlap matrix S                  =    F
ts: **************************************************************
 
************************ Begin: TS CHECKS AND WARNINGS ************************
************************ End: TS CHECKS AND WARNINGS **************************


                     ====================================
                        Begin CG opt. move =      0
                     ====================================

superc: Internal auxiliary supercell:     3 x     1 x     1  =       3
superc: Number of atoms, orbitals, and projectors:    132   1524   1944

outcell: Unit cell vectors (Ang):
        8.870000    0.000000    0.000000
        0.000000   50.000000    0.000000
        0.000000    0.000000   20.000000

outcell: Cell vector modules (Ang)   :    8.870000   50.000000   20.000000
outcell: Cell angles (23,13,12) (deg):     90.0000     90.0000     90.0000
outcell: Cell volume (Ang**3)        :   8870.0000
<dSpData1D:S at geom step 0
  <sparsity:sparsity for geom step 0
    nrows_g=508 nrows=25 sparsity=.0438 nnzs=11300, refcount: 7>
  <dData1D:(new from dSpData1D) n=11300, refcount: 1>
refcount: 1>
new_DM -- step:     1
Initializing Density Matrix...
 
Attempting to read DM from file... Failed...
DM filled with atomic data (user-defined):
<dSpData2D:DM initialized from atoms
  <sparsity:sparsity for geom step 0
    nrows_g=508 nrows=25 sparsity=.0438 nnzs=11300, refcount: 8>
  <dData2D:DM n=11300 m=2, refcount: 1>
refcount: 1>

initDM: Initial spin polarization (Qup-Qdown) =    0.000000

No. of atoms with KB's overlaping orbs in proc 0. Max # of overlaps:      34     217
New grid distribution:   1
           1       1:   54    1:   80    1:   21
           2       1:   54    1:   80   22:   42
           3       1:   54    1:   80   43:   63
           4       1:   54    1:   80   64:   84
           5       1:   54    1:   80   85:  105
           6       1:   54    1:   80  106:  125
           7       1:   54   81:  160    1:   21
           8       1:   54   81:  160   22:   42
           9       1:   54   81:  160   43:   63
          10       1:   54   81:  160   64:   84
          11       1:   54   81:  160   85:  105
          12       1:   54   81:  160  106:  125
          13       1:   54  161:  240    1:   21
          14       1:   54  161:  240   22:   42
          15       1:   54  161:  240   43:   63
          16       1:   54  161:  240   64:   84
          17       1:   54  161:  240   85:  105
          18       1:   54  161:  240  106:  125
          19       1:   54  241:  320    1:   21
          20       1:   54  241:  320   22:   42
          21       1:   54  241:  320   43:   63
          22       1:   54  241:  320   64:   84
          23       1:   54  241:  320   85:  105
          24       1:   54  241:  320  106:  125

InitMesh: MESH =   108 x   640 x   250 =    17280000
InitMesh: (bp) =    54 x   320 x   125 =     2160000
InitMesh: Mesh cutoff (required, used) =   400.000   409.734 Ry
ExtMesh (bp) on 0 =   118 x   148 x    89 =     1554296
New grid distribution:   2
           1       1:   54    1:   44    1:   63
           2       1:   54   62:   72    1:   59
           3       1:   54   56:   61    1:   63
           4       1:   54   45:   55   59:   63
           5       1:   54    1:   44   64:  125
           6       1:   54   62:   72   60:   63
           7       1:   54   79:   89    1:   59
           8       1:   54   90:   95    1:   63
           9       1:   54   62:   72   68:  125
          10       1:   54   96:  320   64:   67
          11       1:   54   73:   78    1:   63
          12       1:   54   45:   55   64:   67
          13       1:   54   96:  320    1:   58
          14       1:   54   79:   89   68:  125
          15       1:   54   73:   78   64:  125
          16       1:   54   79:   89   60:   63
          17       1:   54   96:  320   68:  125
          18       1:   54   45:   55    1:   58
          19       1:   54   56:   61   64:  125
          20       1:   54   79:   89   64:   67
          21       1:   54   96:  320   59:   63
          22       1:   54   45:   55   68:  125
          23       1:   54   90:   95   64:  125
          24       1:   54   62:   72   64:   67
New grid distribution:   3
           1       1:   54    1:   31    1:   63
           2       1:   54   57:   73    1:   55
           3       1:   54   74:   82    1:   63
           4       1:   54   32:   48   64:   71
           5       1:   54    1:   31   64:  125
           6       1:   54   32:   48    1:   55
           7       1:   54   99:  107    1:   63
           8       1:   54   57:   73   56:   63
           9       1:   54   57:   73   72:  125
          10       1:   54  108:  320   64:   70
          11       1:   54   99:  107   64:  125
          12       1:   54   32:   48   56:   63
          13       1:   54  108:  320    1:   56
          14       1:   54   82:   98   72:  125
          15       1:   54   49:   56    1:   63
          16       1:   54   82:   98   64:   71
          17       1:   54  108:  320   71:  125
          18       1:   54   32:   48   72:  125
          19       1:   54   49:   56   64:  125
          20       1:   54   57:   73   64:   71
          21       1:   54  108:  320   57:   63
          22       1:   54   83:   98    1:   55
          23       1:   54   74:   81   64:  125
          24       1:   54   83:   98   56:   63
Setting up quadratic distribution...
ExtMesh (bp) on 0 =   118 x   112 x   131 =     1731296
PhiOnMesh: Number of (b)points on node 0 =               149688
PhiOnMesh: nlist on node 0 =               484463

stepf: Fermi-Dirac step function

siesta: Program's energy decomposition (eV):
siesta: Ebs     =     -1725.668319
siesta: Eions   =      9351.460319
siesta: Ena     =      1960.520216
siesta: Ekin    =      4199.399392
siesta: Enl     =      -566.333533
siesta: Eso     =         0.000000
siesta: Eldau   =         0.000000
siesta: DEna    =      -175.676196
siesta: DUscf   =        17.812550
siesta: DUext   =         0.000000
siesta: Enegf   =         0.000000
siesta: Exc     =     -1793.791590
siesta: eta*DQ  =         0.000000
siesta: Emadel  =         0.000000
siesta: Emeta   =         0.000000
siesta: Emolmec =         0.000000
siesta: Ekinion =         0.000000
siesta: Eharris =     -5715.054589
siesta: Etot    =     -5709.529480
siesta: FreeEng =     -5709.529574

        iscf     Eharris(eV)        E_KS(eV)     FreeEng(eV)     dDmax    Ef(eV) dHmax(eV)
   scf:    1    -5715.054589    -5709.529480    -5709.529574  0.966971 -5.472302  5.669029
timer: Routine,Calls,Time,% = IterSCF        1       5.849  64.10
   scf:    2    -5711.587756    -5710.597666    -5710.597768  0.011561 -5.156683  4.385747
   scf:    3    -5713.543386    -5712.571799    -5712.572005  0.047331 -3.786315  1.450280
   scf:    4    -5712.902983    -5712.767528    -5712.767779  0.011852 -3.625275  0.429571
   scf:    5    -5712.840929    -5712.809199    -5712.809475  0.003601 -3.627212  0.412656
   scf:    6    -5712.872484    -5712.844581    -5712.844940  0.005593 -3.617744  0.196354
   scf:    7    -5712.855726    -5712.850445    -5712.850880  0.004252 -3.629594  0.151160
   scf:    8    -5712.850584    -5712.851007    -5712.851459  0.002007 -3.612983  0.162441
   scf:    9    -5712.853871    -5712.852634    -5712.853124  0.002455 -3.611642  0.102098
   scf:   10    -5712.856187    -5712.854267    -5712.854817  0.003222 -3.623235  0.039592
   scf:   11    -5712.855000    -5712.854615    -5712.855184  0.000920 -3.623515  0.031401
   scf:   12    -5712.856003    -5712.855229    -5712.855834  0.001992 -3.623755  0.018927
   scf:   13    -5712.856299    -5712.855684    -5712.856318  0.001877 -3.623644  0.013635
   scf:   14    -5712.856046    -5712.855848    -5712.856494  0.000847 -3.623862  0.011990
   scf:   15    -5712.856101    -5712.855963    -5712.856617  0.000671 -3.624034  0.010411
   scf:   16    -5712.856631    -5712.856207    -5712.856879  0.001927 -3.623837  0.007754
   scf:   17    -5712.856430    -5712.856289    -5712.856967  0.001089 -3.623757  0.005186
   scf:   18    -5712.856382    -5712.856322    -5712.857003  0.000740 -3.623777  0.003915
   scf:   19    -5706.181809    -5706.181760    -5706.182442  0.000681 -3.623688  1.903583
   scf:   20    -5706.181737    -5706.181745    -5706.182426  0.000407 -3.623791  1.904626
   scf:   21    -5706.181794    -5706.181761    -5706.182443  0.000586 -3.623680  1.903691
   scf:   22    -5706.181778    -5706.181769    -5706.182451  0.000181 -3.623659  1.903284
   scf:   23    -5706.181784    -5706.181777    -5706.182458  0.000050 -3.623649  1.903178
   scf:   24    -5712.856349    -5712.856348    -5712.857030  0.000122 -3.623612  0.001280
   scf:   25    -5712.856348    -5712.856348    -5712.857030  0.000073 -3.623625  0.001245
   scf:   26    -5712.856348    -5712.856348    -5712.857030  0.000038 -3.623644  0.001077
   scf:   27    -5712.856352    -5712.856349    -5712.857031  0.000215 -3.623697  0.000429
   scf:   28    -5712.856349    -5712.856349    -5712.857031  0.000029 -3.623707  0.000450
   scf:   29    -5712.856349    -5712.856349    -5712.857031  0.000006 -3.623708  0.000448

SCF Convergence by DM+H criterion
max |DM_out - DM_in|         :     0.0000062681
max |H_out - H_in|      (eV) :     0.0004482646
SCF cycle converged after 29 iterations

Using DM_out to compute the final energy and forces
No. of atoms with KB's overlaping orbs in proc 0. Max # of overlaps:      34     217

siesta: E_KS(eV) =            -5712.8563

siesta: E_KS - E_eggbox =     -5712.8563

siesta: Total spin polarization (Qup-Qdown) =   -0.000000

siesta: Atomic forces (eV/Ang):
----------------------------------------
   Tot    0.003973    0.002262   -0.000000
----------------------------------------
   Max    0.429865
   Res    0.095547    sqrt( Sum f_i^2 / 3N )
----------------------------------------
   Max    0.429865    constrained

Stress-tensor-Voigt (kbar):        0.53        0.48        0.00       -0.09       -0.00       -0.00
(Free)E + p*V (eV/cell)    -5714.7308
Target enthalpy (eV/cell)    -5712.8570
 
mulliken: Atomic and Orbital Populations:

mulliken: Spin UP 

Species: H.ca                
Atom  Qatom  Qorb
               1s      1s      1Ppy    1Ppz    1Ppx    
   1  0.623   0.407   0.159   0.025   0.019   0.014
   3  0.625   0.420   0.149   0.024   0.019   0.012
   9  0.624   0.421   0.148   0.023   0.019   0.013
  19  0.621   0.406   0.157   0.018   0.019   0.020
  30  0.622   0.408   0.157   0.018   0.019   0.020
  38  0.623   0.422   0.146   0.023   0.018   0.013
  42  0.624   0.421   0.148   0.024   0.019   0.012
  44  0.622   0.407   0.158   0.025   0.019   0.014

Species: C.ca2               
Atom  Qatom  Qorb
               2s      2s      2py     2pz     2px     2py     2pz     2px     
               2Pdxy   2Pdyz   2Pdz2   2Pdxz   2Pdx2-y2
   2  1.987   0.243   0.247   0.222   0.382   0.225   0.252   0.082   0.253
              0.023   0.016   0.002   0.017   0.024
   4  1.907   0.184   0.276   0.085   0.404   0.249   0.344   0.067   0.238
              0.016   0.005   0.001   0.016   0.022
   5  1.972   0.233   0.250   0.215   0.372   0.214   0.256   0.087   0.262
              0.024   0.015   0.002   0.018   0.025
   6  2.000   0.249   0.244   0.225   0.389   0.230   0.252   0.080   0.250
              0.024   0.015   0.002   0.015   0.024
   7  2.000   0.247   0.245   0.231   0.386   0.228   0.250   0.082   0.252
              0.023   0.016   0.002   0.016   0.024
   8  2.001   0.248   0.245   0.228   0.388   0.230   0.251   0.081   0.250
              0.023   0.016   0.002   0.016   0.024
  10  1.905   0.184   0.276   0.082   0.405   0.251   0.344   0.066   0.237
              0.017   0.005   0.001   0.016   0.021
  11  1.971   0.235   0.249   0.215   0.372   0.208   0.256   0.087   0.266
              0.025   0.015   0.002   0.018   0.024
  12  1.998   0.248   0.245   0.224   0.387   0.226   0.254   0.081   0.253
              0.024   0.015   0.002   0.015   0.024
  13  2.001   0.247   0.245   0.229   0.384   0.229   0.251   0.082   0.253
              0.023   0.016   0.002   0.016   0.024
  14  2.001   0.247   0.245   0.229   0.387   0.228   0.251   0.081   0.251
              0.023   0.016   0.002   0.016   0.024
  15  2.000   0.247   0.245   0.229   0.387   0.228   0.251   0.081   0.251
              0.023   0.016   0.002   0.016   0.024
  16  2.000   0.248   0.245   0.228   0.387   0.228   0.250   0.081   0.253
              0.023   0.016   0.002   0.016   0.024
  17  1.998   0.250   0.244   0.226   0.388   0.229   0.252   0.080   0.250
              0.024   0.015   0.002   0.015   0.024
  18  1.888   0.180   0.278   0.092   0.394   0.234   0.336   0.070   0.245
              0.018   0.004   0.001   0.016   0.021
  20  1.888   0.176   0.279   0.085   0.392   0.236   0.343   0.072   0.245
              0.018   0.004   0.001   0.016   0.021
  21  1.889   0.174   0.279   0.159   0.392   0.159   0.293   0.073   0.300
              0.024   0.010   0.001   0.010   0.015
  22  1.998   0.249   0.244   0.225   0.388   0.228   0.253   0.081   0.251
              0.024   0.015   0.002   0.015   0.024
  23  2.000   0.248   0.245   0.228   0.386   0.228   0.251   0.081   0.253
              0.023   0.016   0.002   0.016   0.024
  24  2.000   0.247   0.245   0.229   0.387   0.228   0.251   0.081   0.251
              0.023   0.016   0.002   0.016   0.024
  25  2.000   0.247   0.245   0.229   0.387   0.228   0.251   0.081   0.251
              0.023   0.016   0.002   0.016   0.024
  26  2.001   0.247   0.245   0.230   0.385   0.228   0.250   0.082   0.253
              0.023   0.016   0.002   0.016   0.024
  27  1.998   0.249   0.244   0.225   0.388   0.227   0.253   0.081   0.252
              0.024   0.015   0.002   0.015   0.024
  28  1.972   0.239   0.248   0.218   0.376   0.211   0.252   0.084   0.263
              0.024   0.014   0.002   0.017   0.024
  29  1.906   0.187   0.275   0.087   0.408   0.251   0.339   0.064   0.235
              0.017   0.004   0.001   0.016   0.021
  31  1.986   0.245   0.246   0.215   0.386   0.230   0.257   0.081   0.247
              0.024   0.015   0.002   0.016   0.024
  32  2.001   0.248   0.245   0.229   0.388   0.230   0.251   0.081   0.250
              0.023   0.016   0.002   0.016   0.024
  33  2.001   0.247   0.245   0.230   0.388   0.229   0.250   0.081   0.251
              0.023   0.016   0.002   0.016   0.024
  34  2.000   0.247   0.245   0.231   0.385   0.228   0.250   0.082   0.252
              0.023   0.016   0.002   0.016   0.024
  35  2.000   0.248   0.245   0.225   0.389   0.229   0.252   0.081   0.251
              0.023   0.015   0.002   0.016   0.024
  36  1.973   0.236   0.249   0.217   0.374   0.215   0.253   0.085   0.260
              0.024   0.015   0.002   0.018   0.024
  37  1.908   0.187   0.275   0.088   0.406   0.251   0.340   0.065   0.235
              0.016   0.005   0.001   0.016   0.022
  39  2.001   0.247   0.245   0.230   0.388   0.229   0.250   0.081   0.251
              0.023   0.016   0.002   0.016   0.024
  40  1.987   0.242   0.247   0.220   0.382   0.226   0.254   0.083   0.252
              0.023   0.016   0.002   0.017   0.024
  41  1.987   0.246   0.245   0.215   0.387   0.231   0.255   0.081   0.247
              0.023   0.015   0.002   0.016   0.024
  43  1.891   0.177   0.278   0.154   0.394   0.167   0.295   0.071   0.293
              0.024   0.010   0.001   0.010   0.015

mulliken: Qtot =       76.000

mulliken: Spin DOWN 

Species: H.ca                
Atom  Qatom  Qorb
               1s      1s      1Ppy    1Ppz    1Ppx    
   1  0.623   0.407   0.159   0.025   0.019   0.014
   3  0.625   0.420   0.149   0.024   0.019   0.012
   9  0.624   0.421   0.148   0.023   0.019   0.013
  19  0.621   0.406   0.157   0.018   0.019   0.020
  30  0.622   0.408   0.157   0.018   0.019   0.020
  38  0.623   0.422   0.146   0.023   0.018   0.013
  42  0.624   0.421   0.148   0.024   0.019   0.012
  44  0.622   0.407   0.158   0.025   0.019   0.014

Species: C.ca2               
Atom  Qatom  Qorb
               2s      2s      2py     2pz     2px     2py     2pz     2px     
               2Pdxy   2Pdyz   2Pdz2   2Pdxz   2Pdx2-y2
   2  1.987   0.243   0.247   0.222   0.382   0.225   0.252   0.082   0.253
              0.023   0.016   0.002   0.017   0.024
   4  1.907   0.184   0.276   0.085   0.404   0.249   0.344   0.067   0.238
              0.016   0.005   0.001   0.016   0.022
   5  1.972   0.233   0.250   0.215   0.372   0.214   0.256   0.087   0.262
              0.024   0.015   0.002   0.018   0.025
   6  2.000   0.249   0.244   0.225   0.389   0.230   0.252   0.080   0.250
              0.024   0.015   0.002   0.015   0.024
   7  2.000   0.247   0.245   0.231   0.386   0.228   0.250   0.082   0.252
              0.023   0.016   0.002   0.016   0.024
   8  2.001   0.248   0.245   0.228   0.388   0.230   0.251   0.081   0.250
              0.023   0.016   0.002   0.016   0.024
  10  1.905   0.184   0.276   0.082   0.405   0.251   0.344   0.066   0.237
              0.017   0.005   0.001   0.016   0.021
  11  1.971   0.235   0.249   0.215   0.372   0.208   0.256   0.087   0.266
              0.025   0.015   0.002   0.018   0.024
  12  1.998   0.248   0.245   0.224   0.387   0.226   0.254   0.081   0.253
              0.024   0.015   0.002   0.015   0.024
  13  2.001   0.247   0.245   0.229   0.384   0.229   0.251   0.082   0.253
              0.023   0.016   0.002   0.016   0.024
  14  2.001   0.247   0.245   0.229   0.387   0.228   0.251   0.081   0.251
              0.023   0.016   0.002   0.016   0.024
  15  2.000   0.247   0.245   0.229   0.387   0.228   0.251   0.081   0.251
              0.023   0.016   0.002   0.016   0.024
  16  2.000   0.248   0.245   0.228   0.387   0.228   0.250   0.081   0.253
              0.023   0.016   0.002   0.016   0.024
  17  1.998   0.250   0.244   0.226   0.388   0.229   0.252   0.080   0.250
              0.024   0.015   0.002   0.015   0.024
  18  1.888   0.180   0.278   0.092   0.394   0.234   0.336   0.070   0.245
              0.018   0.004   0.001   0.016   0.021
  20  1.888   0.176   0.279   0.085   0.392   0.236   0.343   0.072   0.245
              0.018   0.004   0.001   0.016   0.021
  21  1.889   0.174   0.279   0.159   0.392   0.159   0.293   0.073   0.300
              0.024   0.010   0.001   0.010   0.015
  22  1.998   0.249   0.244   0.225   0.388   0.228   0.253   0.081   0.251
              0.024   0.015   0.002   0.015   0.024
  23  2.000   0.248   0.245   0.228   0.386   0.228   0.251   0.081   0.253
              0.023   0.016   0.002   0.016   0.024
  24  2.000   0.247   0.245   0.229   0.387   0.228   0.251   0.081   0.251
              0.023   0.016   0.002   0.016   0.024
  25  2.000   0.247   0.245   0.229   0.387   0.228   0.251   0.081   0.251
              0.023   0.016   0.002   0.016   0.024
  26  2.001   0.247   0.245   0.230   0.385   0.228   0.250   0.082   0.253
              0.023   0.016   0.002   0.016   0.024
  27  1.998   0.249   0.244   0.225   0.388   0.227   0.253   0.081   0.252
              0.024   0.015   0.002   0.015   0.024
  28  1.972   0.239   0.248   0.218   0.376   0.211   0.252   0.084   0.263
              0.024   0.014   0.002   0.017   0.024
  29  1.906   0.187   0.275   0.087   0.408   0.251   0.339   0.064   0.235
              0.017   0.004   0.001   0.016   0.021
  31  1.986   0.245   0.246   0.215   0.386   0.230   0.257   0.081   0.247
              0.024   0.015   0.002   0.016   0.024
  32  2.001   0.248   0.245   0.229   0.388   0.230   0.251   0.081   0.250
              0.023   0.016   0.002   0.016   0.024
  33  2.001   0.247   0.245   0.230   0.388   0.229   0.250   0.081   0.251
              0.023   0.016   0.002   0.016   0.024
  34  2.000   0.247   0.245   0.231   0.385   0.228   0.250   0.082   0.252
              0.023   0.016   0.002   0.016   0.024
  35  1.999   0.248   0.245   0.225   0.389   0.229   0.252   0.081   0.251
              0.023   0.015   0.002   0.016   0.024
  36  1.973   0.236   0.249   0.217   0.374   0.215   0.253   0.085   0.260
              0.024   0.015   0.002   0.018   0.024
  37  1.908   0.187   0.275   0.088   0.406   0.251   0.340   0.065   0.235
              0.016   0.005   0.001   0.016   0.022
  39  2.001   0.247   0.245   0.230   0.388   0.229   0.250   0.081   0.251
              0.023   0.016   0.002   0.016   0.024
  40  1.987   0.242   0.247   0.220   0.382   0.226   0.254   0.083   0.252
              0.023   0.016   0.002   0.017   0.024
  41  1.987   0.246   0.245   0.215   0.387   0.231   0.255   0.081   0.247
              0.023   0.015   0.002   0.016   0.024
  43  1.891   0.177   0.278   0.154   0.394   0.167   0.295   0.071   0.293
              0.024   0.010   0.001   0.010   0.015

mulliken: Qtot =       76.000

                     ====================================
                        Begin CG opt. move =      1
                     ====================================

superc: Internal auxiliary supercell:     3 x     1 x     1  =       3
superc: Number of atoms, orbitals, and projectors:    132   1524   1944

outcell: Unit cell vectors (Ang):
        8.870000    0.000000    0.000000
        0.000000   50.000000    0.000000
        0.000000    0.000000   20.000000

outcell: Cell vector modules (Ang)   :    8.870000   50.000000   20.000000
outcell: Cell angles (23,13,12) (deg):     90.0000     90.0000     90.0000
outcell: Cell volume (Ang**3)        :   8870.0000
<dSpData1D:S at geom step 1
  <sparsity:sparsity for geom step 1
    nrows_g=508 nrows=25 sparsity=.0438 nnzs=11300, refcount: 7>
  <dData1D:(new from dSpData1D) n=11300, refcount: 1>
refcount: 1>
new_DM -- step:     2
Re-using DM from previous geometries...
Number of DMs in history: 1
 DM extrapolation coefficients: 
1   1.00000
New DM after history re-use:
<dSpData2D:SpM extrapolated using coords
  <sparsity:sparsity for geom step 1
    nrows_g=508 nrows=25 sparsity=.0438 nnzs=11300, refcount: 8>
  <dData2D:(temp array for extrapolation) n=11300 m=2, refcount: 1>
refcount: 1>
No. of atoms with KB's overlaping orbs in proc 0. Max # of overlaps:      34     217
New grid distribution:   1
           1       1:   54    1:   80    1:   21
           2       1:   54    1:   80   22:   42
           3       1:   54    1:   80   43:   63
           4       1:   54    1:   80   64:   84
           5       1:   54    1:   80   85:  105
           6       1:   54    1:   80  106:  125
           7       1:   54   81:  160    1:   21
           8       1:   54   81:  160   22:   42
           9       1:   54   81:  160   43:   63
          10       1:   54   81:  160   64:   84
          11       1:   54   81:  160   85:  105
          12       1:   54   81:  160  106:  125
          13       1:   54  161:  240    1:   21
          14       1:   54  161:  240   22:   42
          15       1:   54  161:  240   43:   63
          16       1:   54  161:  240   64:   84
          17       1:   54  161:  240   85:  105
          18       1:   54  161:  240  106:  125
          19       1:   54  241:  320    1:   21
          20       1:   54  241:  320   22:   42
          21       1:   54  241:  320   43:   63
          22       1:   54  241:  320   64:   84
          23       1:   54  241:  320   85:  105
          24       1:   54  241:  320  106:  125

InitMesh: MESH =   108 x   640 x   250 =    17280000
InitMesh: (bp) =    54 x   320 x   125 =     2160000
InitMesh: Mesh cutoff (required, used) =   400.000   409.734 Ry
ExtMesh (bp) on 0 =   118 x   148 x    89 =     1554296
New grid distribution:   2
           1       1:   54    1:   44    1:   63
           2       1:   54   62:   72    1:   59
           3       1:   54   56:   61    1:   63
           4       1:   54   45:   55   59:   63
           5       1:   54    1:   44   64:  125
           6       1:   54   62:   72   60:   63
           7       1:   54   79:   89    1:   59
           8       1:   54   90:   95    1:   63
           9       1:   54   62:   72   68:  125
          10       1:   54   96:  320   64:   67
          11       1:   54   73:   78    1:   63
          12       1:   54   45:   55   64:   67
          13       1:   54   96:  320    1:   58
          14       1:   54   79:   89   68:  125
          15       1:   54   73:   78   64:  125
          16       1:   54   79:   89   60:   63
          17       1:   54   96:  320   68:  125
          18       1:   54   45:   55    1:   58
          19       1:   54   56:   61   64:  125
          20       1:   54   79:   89   64:   67
          21       1:   54   96:  320   59:   63
          22       1:   54   45:   55   68:  125
          23       1:   54   90:   95   64:  125
          24       1:   54   62:   72   64:   67
New grid distribution:   3
           1       1:   54    1:   31    1:   63
           2       1:   54   57:   73    1:   55
           3       1:   54   57:   73   56:   63
           4       1:   54   74:   82   64:  125
           5       1:   54    1:   31   64:  125
           6       1:   54   32:   48    1:   55
           7       1:   54   99:  107    1:   63
           8       1:   54   57:   73   64:   71
           9       1:   54   82:   98    1:   55
          10       1:   54  108:  320   64:   70
          11       1:   54   99:  107   64:  125
          12       1:   54   32:   48   64:   71
          13       1:   54  108:  320    1:   56
          14       1:   54   57:   73   72:  125
          15       1:   54   74:   81    1:   63
          16       1:   54   32:   48   56:   63
          17       1:   54  108:  320   71:  125
          18       1:   54   32:   48   72:  125
          19       1:   54   49:   56    1:   63
          20       1:   54   82:   98   56:   63
          21       1:   54  108:  320   57:   63
          22       1:   54   83:   98   72:  125
          23       1:   54   49:   56   64:  125
          24       1:   54   83:   98   64:   71
Setting up quadratic distribution...
ExtMesh (bp) on 0 =   118 x   112 x   131 =     1731296
PhiOnMesh: Number of (b)points on node 0 =               149688
PhiOnMesh: nlist on node 0 =               484612

        iscf     Eharris(eV)        E_KS(eV)     FreeEng(eV)     dDmax    Ef(eV) dHmax(eV)
   scf:    1    -5706.216496    -5710.752256    -5710.752258  0.049040 -3.655986  5.610504
   scf:    2    -5439.899370    -5624.901566    -5624.909458  0.183737 -3.348060 34.281309
   scf:    3    -5729.905225    -5712.530656    -5712.530887  0.150310 -3.647671  1.462187
   scf:    4    -5712.682561    -5712.709736    -5712.710104  0.014579 -3.646238  0.725871
   scf:    5    -5712.636196    -5712.710549    -5712.710884  0.009523 -3.640875  0.736411
   scf:    6    -5712.614199    -5712.719615    -5712.719958  0.011141 -3.633183  0.551393
   scf:    7    -5712.717316    -5712.742858    -5712.743223  0.006932 -3.630219  0.224014
   scf:    8    -5712.745682    -5712.746895    -5712.747264  0.002350 -3.627802  0.040740
   scf:    9    -5712.747016    -5712.747022    -5712.747391  0.000441 -3.627412  0.009107
   scf:   10    -5712.747028    -5712.747029    -5712.747398  0.000090 -3.627188  0.004921
   scf:   11    -5712.747030    -5712.747031    -5712.747400  0.000087 -3.627255  0.001857
   scf:   12    -5712.747032    -5712.747031    -5712.747401  0.000018 -3.627271  0.000588
   scf:   13    -5712.747032    -5712.747032    -5712.747401  0.000020 -3.627304  0.000138
   scf:   14    -5712.747032    -5712.747032    -5712.747401  0.000002 -3.627304  0.000119

SCF Convergence by DM+H criterion
max |DM_out - DM_in|         :     0.0000016276
max |H_out - H_in|      (eV) :     0.0001192262
SCF cycle converged after 14 iterations

Using DM_out to compute the final energy and forces
No. of atoms with KB's overlaping orbs in proc 0. Max # of overlaps:      34     217

siesta: E_KS(eV) =            -5712.7470

siesta: Total spin polarization (Qup-Qdown) =    0.000000

siesta: Atomic forces (eV/Ang):
----------------------------------------
   Tot   -0.006759    0.008030   -0.000000
----------------------------------------
   Max    1.737001
   Res    0.400441    sqrt( Sum f_i^2 / 3N )
----------------------------------------
   Max    1.737001    constrained

Stress-tensor-Voigt (kbar):        0.21       -0.20        0.00       -0.08       -0.00        0.00
(Free)E + p*V (eV/cell)    -5712.7682
Target enthalpy (eV/cell)    -5712.7474
 
mulliken: Atomic and Orbital Populations:

mulliken: Spin UP 

Species: H.ca                
Atom  Qatom  Qorb
               1s      1s      1Ppy    1Ppz    1Ppx    
   1  0.623   0.407   0.159   0.025   0.019   0.014
   3  0.625   0.420   0.150   0.024   0.019   0.012
   9  0.625   0.420   0.149   0.023   0.019   0.013
  19  0.622   0.410   0.155   0.018   0.018   0.021
  30  0.622   0.408   0.157   0.018   0.019   0.020
  38  0.626   0.419   0.151   0.023   0.019   0.013
  42  0.627   0.419   0.152   0.024   0.020   0.013
  44  0.626   0.407   0.161   0.025   0.020   0.014

Species: C.ca2               
Atom  Qatom  Qorb
               2s      2s      2py     2pz     2px     2py     2pz     2px     
               2Pdxy   2Pdyz   2Pdz2   2Pdxz   2Pdx2-y2
   2  1.987   0.243   0.247   0.222   0.382   0.225   0.252   0.082   0.252
              0.023   0.016   0.002   0.017   0.024
   4  1.907   0.183   0.276   0.084   0.404   0.249   0.345   0.067   0.237
              0.016   0.005   0.001   0.016   0.022
   5  1.972   0.234   0.249   0.215   0.372   0.214   0.256   0.087   0.261
              0.024   0.015   0.002   0.018   0.025
   6  1.999   0.249   0.244   0.225   0.389   0.230   0.252   0.080   0.250
              0.024   0.015   0.002   0.015   0.024
   7  2.000   0.247   0.245   0.230   0.385   0.229   0.249   0.082   0.252
              0.023   0.015   0.002   0.016   0.024
   8  2.001   0.249   0.244   0.229   0.389   0.232   0.249   0.080   0.249
              0.023   0.016   0.002   0.016   0.024
  10  1.905   0.183   0.277   0.082   0.405   0.251   0.345   0.066   0.237
              0.017   0.005   0.001   0.016   0.021
  11  1.971   0.235   0.249   0.215   0.372   0.209   0.256   0.087   0.266
              0.025   0.015   0.002   0.018   0.024
  12  1.998   0.248   0.245   0.224   0.387   0.226   0.254   0.081   0.253
              0.024   0.015   0.002   0.015   0.024
  13  2.001   0.246   0.245   0.229   0.384   0.229   0.251   0.082   0.253
              0.023   0.016   0.002   0.016   0.024
  14  2.001   0.248   0.245   0.230   0.388   0.229   0.251   0.081   0.250
              0.023   0.016   0.002   0.016   0.024
  15  2.001   0.246   0.245   0.229   0.387   0.229   0.252   0.082   0.251
              0.023   0.016   0.002   0.016   0.024
  16  2.000   0.250   0.244   0.228   0.388   0.232   0.251   0.079   0.248
              0.023   0.016   0.002   0.015   0.024
  17  1.997   0.252   0.244   0.224   0.390   0.230   0.256   0.078   0.244
              0.023   0.015   0.002   0.015   0.024
  18  1.888   0.169   0.279   0.077   0.385   0.235   0.352   0.078   0.249
              0.018   0.005   0.001   0.016   0.022
  20  1.888   0.175   0.279   0.085   0.392   0.236   0.343   0.072   0.245
              0.018   0.004   0.001   0.016   0.021
  21  1.889   0.174   0.279   0.159   0.392   0.159   0.292   0.072   0.301
              0.024   0.010   0.001   0.010   0.015
  22  1.998   0.249   0.244   0.226   0.388   0.227   0.253   0.081   0.251
              0.024   0.015   0.002   0.015   0.024
  23  2.000   0.248   0.245   0.228   0.386   0.228   0.251   0.081   0.253
              0.023   0.016   0.002   0.016   0.024
  24  2.000   0.246   0.245   0.229   0.387   0.228   0.251   0.082   0.251
              0.023   0.016   0.002   0.016   0.024
  25  2.001   0.246   0.245   0.229   0.387   0.228   0.252   0.082   0.251
              0.023   0.016   0.002   0.016   0.024
  26  2.001   0.248   0.245   0.227   0.386   0.233   0.252   0.081   0.249
              0.023   0.016   0.002   0.016   0.024
  27  1.997   0.250   0.244   0.223   0.389   0.229   0.256   0.080   0.248
              0.024   0.015   0.002   0.015   0.023
  28  1.971   0.228   0.251   0.210   0.366   0.206   0.263   0.093   0.269
              0.025   0.015   0.002   0.018   0.025
  29  1.902   0.181   0.278   0.079   0.406   0.250   0.348   0.065   0.237
              0.017   0.004   0.001   0.016   0.021
  31  1.986   0.245   0.246   0.215   0.386   0.230   0.257   0.081   0.247
              0.023   0.015   0.002   0.016   0.024
  32  2.001   0.247   0.245   0.228   0.388   0.230   0.251   0.081   0.251
              0.023   0.016   0.002   0.016   0.024
  33  2.001   0.248   0.245   0.230   0.388   0.229   0.250   0.080   0.251
              0.023   0.016   0.002   0.016   0.024
  34  2.000   0.249   0.244   0.230   0.387   0.231   0.250   0.080   0.249
              0.024   0.016   0.002   0.016   0.023
  35  2.000   0.253   0.243   0.227   0.392   0.233   0.248   0.077   0.248
              0.024   0.015   0.002   0.015   0.023
  36  1.973   0.230   0.250   0.213   0.369   0.212   0.260   0.091   0.264
              0.025   0.016   0.002   0.018   0.025
  37  1.906   0.176   0.278   0.082   0.400   0.244   0.350   0.071   0.244
              0.017   0.005   0.001   0.016   0.022
  39  2.000   0.249   0.244   0.231   0.389   0.230   0.249   0.079   0.249
              0.023   0.016   0.002   0.016   0.024
  40  1.985   0.247   0.245   0.225   0.387   0.226   0.246   0.079   0.249
              0.022   0.015   0.002   0.017   0.024
  41  1.988   0.246   0.245   0.217   0.386   0.231   0.256   0.081   0.246
              0.023   0.015   0.002   0.016   0.024
  43  1.888   0.175   0.279   0.168   0.393   0.152   0.283   0.072   0.306
              0.024   0.010   0.001   0.010   0.015

mulliken: Qtot =       76.000

mulliken: Spin DOWN 

Species: H.ca                
Atom  Qatom  Qorb
               1s      1s      1Ppy    1Ppz    1Ppx    
   1  0.623   0.407   0.159   0.025   0.019   0.014
   3  0.625   0.420   0.150   0.024   0.019   0.012
   9  0.625   0.420   0.149   0.023   0.019   0.013
  19  0.622   0.410   0.155   0.018   0.018   0.021
  30  0.622   0.408   0.157   0.018   0.019   0.020
  38  0.626   0.419   0.151   0.023   0.019   0.013
  42  0.627   0.419   0.152   0.024   0.020   0.013
  44  0.626   0.407   0.161   0.025   0.020   0.014

Species: C.ca2               
Atom  Qatom  Qorb
               2s      2s      2py     2pz     2px     2py     2pz     2px     
               2Pdxy   2Pdyz   2Pdz2   2Pdxz   2Pdx2-y2
   2  1.987   0.243   0.247   0.222   0.382   0.225   0.252   0.082   0.252
              0.023   0.016   0.002   0.017   0.024
   4  1.907   0.183   0.276   0.084   0.404   0.249   0.345   0.067   0.237
              0.016   0.005   0.001   0.016   0.022
   5  1.972   0.234   0.249   0.215   0.372   0.214   0.256   0.087   0.261
              0.024   0.015   0.002   0.018   0.025
   6  1.999   0.249   0.244   0.225   0.389   0.230   0.252   0.080   0.250
              0.024   0.015   0.002   0.015   0.024
   7  2.000   0.247   0.245   0.230   0.385   0.229   0.249   0.082   0.252
              0.023   0.015   0.002   0.016   0.024
   8  2.001   0.249   0.244   0.229   0.389   0.232   0.249   0.080   0.249
              0.023   0.016   0.002   0.016   0.024
  10  1.905   0.183   0.277   0.082   0.405   0.251   0.345   0.066   0.237
              0.017   0.005   0.001   0.016   0.021
  11  1.971   0.235   0.249   0.215   0.372   0.209   0.256   0.087   0.266
              0.025   0.015   0.002   0.018   0.024
  12  1.998   0.248   0.245   0.224   0.387   0.226   0.254   0.081   0.253
              0.024   0.015   0.002   0.015   0.024
  13  2.001   0.246   0.245   0.229   0.384   0.229   0.251   0.082   0.253
              0.023   0.016   0.002   0.016   0.024
  14  2.001   0.248   0.245   0.230   0.388   0.229   0.251   0.081   0.250
              0.023   0.016   0.002   0.016   0.024
  15  2.001   0.246   0.245   0.229   0.387   0.229   0.252   0.082   0.251
              0.023   0.016   0.002   0.016   0.024
  16  2.000   0.250   0.244   0.228   0.388   0.232   0.251   0.079   0.248
              0.023   0.016   0.002   0.015   0.024
  17  1.997   0.252   0.244   0.224   0.390   0.230   0.256   0.078   0.244
              0.023   0.015   0.002   0.015   0.024
  18  1.888   0.169   0.279   0.077   0.385   0.235   0.352   0.078   0.249
              0.018   0.005   0.001   0.016   0.022
  20  1.888   0.175   0.279   0.085   0.392   0.236   0.343   0.072   0.245
              0.018   0.004   0.001   0.016   0.021
  21  1.889   0.174   0.279   0.159   0.392   0.159   0.292   0.072   0.301
              0.024   0.010   0.001   0.010   0.015
  22  1.998   0.249   0.244   0.226   0.388   0.227   0.253   0.081   0.251
              0.024   0.015   0.002   0.015   0.024
  23  2.000   0.248   0.245   0.228   0.386   0.228   0.251   0.081   0.253
              0.023   0.016   0.002   0.016   0.024
  24  2.000   0.246   0.245   0.229   0.387   0.228   0.251   0.082   0.251
              0.023   0.016   0.002   0.016   0.024
  25  2.001   0.246   0.245   0.229   0.387   0.228   0.252   0.082   0.251
              0.023   0.016   0.002   0.016   0.024
  26  2.001   0.248   0.245   0.227   0.386   0.233   0.252   0.081   0.249
              0.023   0.016   0.002   0.016   0.024
  27  1.997   0.250   0.244   0.223   0.389   0.229   0.256   0.080   0.248
              0.024   0.015   0.002   0.015   0.023
  28  1.971   0.228   0.251   0.210   0.366   0.206   0.263   0.093   0.269
              0.025   0.015   0.002   0.018   0.025
  29  1.902   0.181   0.278   0.079   0.406   0.250   0.348   0.065   0.237
              0.017   0.004   0.001   0.016   0.021
  31  1.986   0.245   0.246   0.215   0.386   0.230   0.257   0.081   0.247
              0.023   0.015   0.002   0.016   0.024
  32  2.001   0.247   0.245   0.228   0.388   0.230   0.251   0.081   0.251
              0.023   0.016   0.002   0.016   0.024
  33  2.001   0.248   0.245   0.230   0.388   0.229   0.250   0.080   0.251
              0.023   0.016   0.002   0.016   0.024
  34  2.000   0.249   0.244   0.230   0.387   0.231   0.250   0.080   0.249
              0.024   0.016   0.002   0.016   0.023
  35  2.000   0.253   0.243   0.227   0.392   0.233   0.248   0.077   0.248
              0.024   0.015   0.002   0.015   0.023
  36  1.973   0.230   0.250   0.213   0.369   0.212   0.260   0.091   0.264
              0.025   0.016   0.002   0.018   0.025
  37  1.906   0.176   0.278   0.082   0.400   0.244   0.350   0.071   0.244
              0.017   0.005   0.001   0.016   0.022
  39  2.000   0.249   0.244   0.231   0.389   0.230   0.249   0.079   0.249
              0.023   0.016   0.002   0.016   0.024
  40  1.985   0.247   0.245   0.225   0.387   0.226   0.246   0.079   0.249
              0.022   0.015   0.002   0.017   0.024
  41  1.988   0.246   0.245   0.217   0.386   0.231   0.256   0.081   0.246
              0.023   0.015   0.002   0.016   0.024
  43  1.888   0.175   0.279   0.168   0.393   0.152   0.283   0.072   0.306
              0.024   0.010   0.001   0.010   0.015

mulliken: Qtot =       76.000

                     ====================================
                        Begin CG opt. move =      2
                     ====================================

superc: Internal auxiliary supercell:     3 x     1 x     1  =       3
superc: Number of atoms, orbitals, and projectors:    132   1524   1944

outcell: Unit cell vectors (Ang):
        8.870000    0.000000    0.000000
        0.000000   50.000000    0.000000
        0.000000    0.000000   20.000000

outcell: Cell vector modules (Ang)   :    8.870000   50.000000   20.000000
outcell: Cell angles (23,13,12) (deg):     90.0000     90.0000     90.0000
outcell: Cell volume (Ang**3)        :   8870.0000
<dSpData1D:S at geom step 2
  <sparsity:sparsity for geom step 2
    nrows_g=508 nrows=25 sparsity=.0438 nnzs=11300, refcount: 7>
  <dData1D:(new from dSpData1D) n=11300, refcount: 1>
refcount: 1>
new_DM -- step:     3
Re-using DM from previous geometries...
Number of DMs in history: 1
 DM extrapolation coefficients: 
1   1.00000
New DM after history re-use:
<dSpData2D:SpM extrapolated using coords
  <sparsity:sparsity for geom step 2
    nrows_g=508 nrows=25 sparsity=.0438 nnzs=11300, refcount: 8>
  <dData2D:(temp array for extrapolation) n=11300 m=2, refcount: 1>
refcount: 1>
No. of atoms with KB's overlaping orbs in proc 0. Max # of overlaps:      34     217
New grid distribution:   1
           1       1:   54    1:   80    1:   21
           2       1:   54    1:   80   22:   42
           3       1:   54    1:   80   43:   63
           4       1:   54    1:   80   64:   84
           5       1:   54    1:   80   85:  105
           6       1:   54    1:   80  106:  125
           7       1:   54   81:  160    1:   21
           8       1:   54   81:  160   22:   42
           9       1:   54   81:  160   43:   63
          10       1:   54   81:  160   64:   84
          11       1:   54   81:  160   85:  105
          12       1:   54   81:  160  106:  125
          13       1:   54  161:  240    1:   21
          14       1:   54  161:  240   22:   42
          15       1:   54  161:  240   43:   63
          16       1:   54  161:  240   64:   84
          17       1:   54  161:  240   85:  105
          18       1:   54  161:  240  106:  125
          19       1:   54  241:  320    1:   21
          20       1:   54  241:  320   22:   42
          21       1:   54  241:  320   43:   63
          22       1:   54  241:  320   64:   84
          23       1:   54  241:  320   85:  105
          24       1:   54  241:  320  106:  125

InitMesh: MESH =   108 x   640 x   250 =    17280000
InitMesh: (bp) =    54 x   320 x   125 =     2160000
InitMesh: Mesh cutoff (required, used) =   400.000   409.734 Ry
ExtMesh (bp) on 0 =   118 x   148 x    89 =     1554296
New grid distribution:   2
           1       1:   54    1:   44    1:   63
           2       1:   54   62:   72    1:   59
           3       1:   54   56:   61    1:   63
           4       1:   54   45:   55   59:   63
           5       1:   54    1:   44   64:  125
           6       1:   54   62:   72   60:   63
           7       1:   54   79:   89    1:   59
           8       1:   54   90:   95    1:   63
           9       1:   54   62:   72   68:  125
          10       1:   54   96:  320   64:   67
          11       1:   54   73:   78    1:   63
          12       1:   54   45:   55   64:   67
          13       1:   54   96:  320    1:   58
          14       1:   54   79:   89   68:  125
          15       1:   54   73:   78   64:  125
          16       1:   54   79:   89   60:   63
          17       1:   54   96:  320   68:  125
          18       1:   54   45:   55    1:   58
          19       1:   54   56:   61   64:  125
          20       1:   54   79:   89   64:   67
          21       1:   54   96:  320   59:   63
          22       1:   54   45:   55   68:  125
          23       1:   54   90:   95   64:  125
          24       1:   54   62:   72   64:   67
New grid distribution:   3
           1       1:   54    1:   31    1:   63
           2       1:   54   57:   73    1:   55
           3       1:   54   49:   56    1:   63
           4       1:   54   32:   48   64:   71
           5       1:   54    1:   31   64:  125
           6       1:   54   57:   73   56:   63
           7       1:   54   82:   98    1:   55
           8       1:   54   99:  107    1:   63
           9       1:   54   32:   48    1:   55
          10       1:   54  108:  320   64:   70
          11       1:   54   99:  107   64:  125
          12       1:   54   32:   48   56:   63
          13       1:   54  108:  320    1:   56
          14       1:   54   57:   73   72:  125
          15       1:   54   74:   81    1:   63
          16       1:   54   82:   98   56:   63
          17       1:   54  108:  320   71:  125
          18       1:   54   82:   98   72:  125
          19       1:   54   49:   56   64:  125
          20       1:   54   82:   98   64:   71
          21       1:   54  108:  320   57:   63
          22       1:   54   32:   48   72:  125
          23       1:   54   74:   81   64:  125
          24       1:   54   57:   73   64:   71
Setting up quadratic distribution...
ExtMesh (bp) on 0 =   118 x   112 x   131 =     1731296
PhiOnMesh: Number of (b)points on node 0 =               149688
PhiOnMesh: nlist on node 0 =               484504

        iscf     Eharris(eV)        E_KS(eV)     FreeEng(eV)     dDmax    Ef(eV) dHmax(eV)
   scf:    1    -5708.714751    -5711.476583    -5711.476596  0.042038 -3.604719  4.567358
   scf:    2    -5540.703323    -5657.726170    -5657.738147  0.183840 -3.713038 27.738218
   scf:    3    -5726.787728    -5712.472997    -5712.473192  0.129561 -3.609894  2.079579
   scf:    4    -5711.236568    -5711.912739    -5711.912765  0.010115 -3.606508  3.256202
   scf:    5    -5711.515839    -5712.663176    -5712.663504  0.043275 -3.615114  1.514140
   scf:    6    -5712.911504    -5712.806387    -5712.806879  0.006106 -3.615588  0.852026
   scf:    7    -5712.716300    -5712.843901    -5712.844442  0.012780 -3.622057  0.543464
   scf:    8    -5712.879247    -5712.870729    -5712.871312  0.004275 -3.622932  0.085456
   scf:    9    -5712.868649    -5712.869789    -5712.870370  0.000543 -3.624113  0.132013
   scf:   10    -5712.869096    -5712.871074    -5712.871658  0.001809 -3.624503  0.061158
   scf:   11    -5712.871403    -5712.871423    -5712.872008  0.000657 -3.624711  0.004036
   scf:   12    -5712.871423    -5712.871425    -5712.872009  0.000055 -3.624717  0.002017
   scf:   13    -5712.871424    -5712.871425    -5712.872010  0.000033 -3.624680  0.001307
   scf:   14    -5712.871425    -5712.871425    -5712.872010  0.000013 -3.624687  0.000247
   scf:   15    -5712.871425    -5712.871425    -5712.872010  0.000008 -3.624682  0.000105

SCF Convergence by DM+H criterion
max |DM_out - DM_in|         :     0.0000079063
max |H_out - H_in|      (eV) :     0.0001051928
SCF cycle converged after 15 iterations

Using DM_out to compute the final energy and forces
No. of atoms with KB's overlaping orbs in proc 0. Max # of overlaps:      34     217

siesta: E_KS(eV) =            -5712.8714

siesta: Total spin polarization (Qup-Qdown) =    0.000000

siesta: Atomic forces (eV/Ang):
----------------------------------------
   Tot    0.011486    0.007700   -0.000000
----------------------------------------
   Max    0.325931
   Res    0.073238    sqrt( Sum f_i^2 / 3N )
----------------------------------------
   Max    0.325931    constrained

Stress-tensor-Voigt (kbar):        0.46        0.33        0.00       -0.09       -0.00       -0.00
(Free)E + p*V (eV/cell)    -5714.3304
Target enthalpy (eV/cell)    -5712.8720
 
mulliken: Atomic and Orbital Populations:

mulliken: Spin UP 

Species: H.ca                
Atom  Qatom  Qorb
               1s      1s      1Ppy    1Ppz    1Ppx    
   1  0.623   0.407   0.159   0.025   0.019   0.014
   3  0.625   0.420   0.150   0.024   0.019   0.012
   9  0.624   0.421   0.148   0.023   0.019   0.013
  19  0.621   0.407   0.157   0.018   0.019   0.020
  30  0.622   0.408   0.157   0.018   0.019   0.020
  38  0.624   0.421   0.148   0.023   0.019   0.013
  42  0.625   0.421   0.149   0.024   0.019   0.012
  44  0.623   0.407   0.159   0.025   0.019   0.014

Species: C.ca2               
Atom  Qatom  Qorb
               2s      2s      2py     2pz     2px     2py     2pz     2px     
               2Pdxy   2Pdyz   2Pdz2   2Pdxz   2Pdx2-y2
   2  1.987   0.243   0.247   0.222   0.382   0.225   0.252   0.082   0.253
              0.023   0.016   0.002   0.017   0.024
   4  1.907   0.184   0.276   0.085   0.404   0.249   0.344   0.067   0.238
              0.016   0.005   0.001   0.016   0.022
   5  1.972   0.233   0.250   0.215   0.372   0.214   0.256   0.087   0.261
              0.024   0.015   0.002   0.018   0.025
   6  1.999   0.249   0.244   0.225   0.389   0.230   0.252   0.080   0.250
              0.024   0.015   0.002   0.015   0.024
   7  2.000   0.247   0.245   0.231   0.385   0.228   0.250   0.082   0.252
              0.023   0.016   0.002   0.016   0.024
   8  2.001   0.248   0.245   0.228   0.388   0.230   0.250   0.081   0.250
              0.023   0.016   0.002   0.016   0.024
  10  1.905   0.184   0.276   0.082   0.405   0.251   0.344   0.066   0.237
              0.017   0.005   0.001   0.016   0.021
  11  1.971   0.235   0.249   0.215   0.372   0.208   0.256   0.087   0.266
              0.025   0.015   0.002   0.018   0.024
  12  1.998   0.248   0.245   0.224   0.387   0.226   0.254   0.081   0.253
              0.024   0.015   0.002   0.015   0.024
  13  2.001   0.247   0.245   0.229   0.384   0.229   0.251   0.082   0.253
              0.023   0.016   0.002   0.016   0.024
  14  2.001   0.247   0.245   0.229   0.387   0.228   0.251   0.081   0.251
              0.023   0.016   0.002   0.016   0.024
  15  2.001   0.247   0.245   0.229   0.387   0.229   0.251   0.081   0.251
              0.023   0.016   0.002   0.016   0.024
  16  2.000   0.249   0.245   0.228   0.387   0.229   0.251   0.080   0.252
              0.023   0.016   0.002   0.016   0.024
  17  1.998   0.250   0.244   0.226   0.389   0.229   0.253   0.080   0.249
              0.024   0.015   0.002   0.015   0.024
  18  1.888   0.177   0.278   0.088   0.392   0.235   0.340   0.072   0.246
              0.018   0.004   0.001   0.016   0.021
  20  1.888   0.176   0.279   0.085   0.392   0.236   0.343   0.072   0.245
              0.018   0.004   0.001   0.016   0.021
  21  1.889   0.174   0.279   0.159   0.392   0.159   0.293   0.072   0.301
              0.024   0.010   0.001   0.010   0.015
  22  1.998   0.249   0.244   0.226   0.388   0.228   0.253   0.081   0.251
              0.024   0.015   0.002   0.015   0.024
  23  2.000   0.248   0.245   0.228   0.386   0.228   0.251   0.081   0.253
              0.023   0.016   0.002   0.016   0.024
  24  2.000   0.247   0.245   0.229   0.387   0.228   0.251   0.081   0.251
              0.023   0.016   0.002   0.016   0.024
  25  2.001   0.247   0.245   0.229   0.387   0.228   0.251   0.081   0.251
              0.023   0.016   0.002   0.016   0.024
  26  2.001   0.247   0.245   0.229   0.385   0.229   0.251   0.082   0.252
              0.023   0.016   0.002   0.016   0.024
  27  1.998   0.249   0.244   0.224   0.388   0.228   0.253   0.081   0.251
              0.024   0.015   0.002   0.015   0.024
  28  1.972   0.236   0.249   0.216   0.374   0.209   0.255   0.086   0.265
              0.024   0.015   0.002   0.017   0.024
  29  1.905   0.186   0.276   0.085   0.407   0.251   0.341   0.064   0.236
              0.017   0.004   0.001   0.016   0.021
  31  1.986   0.245   0.246   0.215   0.386   0.230   0.257   0.081   0.247
              0.024   0.015   0.002   0.016   0.024
  32  2.001   0.248   0.245   0.229   0.388   0.230   0.251   0.081   0.250
              0.023   0.016   0.002   0.016   0.024
  33  2.001   0.248   0.245   0.230   0.388   0.229   0.250   0.081   0.251
              0.023   0.016   0.002   0.016   0.024
  34  2.000   0.248   0.245   0.231   0.385   0.229   0.250   0.081   0.251
              0.023   0.016   0.002   0.016   0.024
  35  2.000   0.249   0.244   0.226   0.390   0.230   0.251   0.080   0.250
              0.023   0.015   0.002   0.015   0.024
  36  1.973   0.234   0.249   0.216   0.372   0.214   0.255   0.087   0.261
              0.024   0.015   0.002   0.018   0.025
  37  1.907   0.184   0.276   0.086   0.404   0.249   0.343   0.067   0.237
              0.016   0.005   0.001   0.016   0.022
  39  2.001   0.248   0.245   0.230   0.388   0.229   0.250   0.080   0.250
              0.023   0.016   0.002   0.016   0.024
  40  1.987   0.244   0.247   0.221   0.383   0.226   0.252   0.082   0.252
              0.023   0.016   0.002   0.017   0.024
  41  1.987   0.246   0.245   0.215   0.387   0.231   0.255   0.081   0.247
              0.023   0.015   0.002   0.016   0.024
  43  1.890   0.176   0.278   0.158   0.394   0.163   0.292   0.071   0.297
              0.024   0.010   0.001   0.010   0.015

mulliken: Qtot =       76.000

mulliken: Spin DOWN 

Species: H.ca                
Atom  Qatom  Qorb
               1s      1s      1Ppy    1Ppz    1Ppx    
   1  0.623   0.407   0.159   0.025   0.019   0.014
   3  0.625   0.420   0.150   0.024   0.019   0.012
   9  0.624   0.421   0.148   0.023   0.019   0.013
  19  0.621   0.407   0.157   0.018   0.019   0.020
  30  0.622   0.408   0.157   0.018   0.019   0.020
  38  0.624   0.421   0.148   0.023   0.019   0.013
  42  0.625   0.421   0.149   0.024   0.019   0.012
  44  0.623   0.407   0.159   0.025   0.019   0.014

Species: C.ca2               
Atom  Qatom  Qorb
               2s      2s      2py     2pz     2px     2py     2pz     2px     
               2Pdxy   2Pdyz   2Pdz2   2Pdxz   2Pdx2-y2
   2  1.987   0.243   0.247   0.222   0.382   0.225   0.252   0.082   0.253
              0.023   0.016   0.002   0.017   0.024
   4  1.907   0.184   0.276   0.085   0.404   0.249   0.344   0.067   0.238
              0.016   0.005   0.001   0.016   0.022
   5  1.972   0.233   0.250   0.215   0.372   0.214   0.256   0.087   0.261
              0.024   0.015   0.002   0.018   0.025
   6  1.999   0.249   0.244   0.225   0.389   0.230   0.252   0.080   0.250
              0.024   0.015   0.002   0.015   0.024
   7  2.000   0.247   0.245   0.231   0.385   0.228   0.250   0.082   0.252
              0.023   0.016   0.002   0.016   0.024
   8  2.001   0.248   0.245   0.228   0.388   0.230   0.250   0.081   0.250
              0.023   0.016   0.002   0.016   0.024
  10  1.905   0.184   0.276   0.082   0.405   0.251   0.344   0.066   0.237
              0.017   0.005   0.001   0.016   0.021
  11  1.971   0.235   0.249   0.215   0.372   0.208   0.256   0.087   0.266
              0.025   0.015   0.002   0.018   0.024
  12  1.998   0.248   0.245   0.224   0.387   0.226   0.254   0.081   0.253
              0.024   0.015   0.002   0.015   0.024
  13  2.001   0.247   0.245   0.229   0.384   0.229   0.251   0.082   0.253
              0.023   0.016   0.002   0.016   0.024
  14  2.001   0.247   0.245   0.229   0.387   0.228   0.251   0.081   0.251
              0.023   0.016   0.002   0.016   0.024
  15  2.001   0.247   0.245   0.229   0.387   0.229   0.251   0.081   0.251
              0.023   0.016   0.002   0.016   0.024
  16  2.000   0.249   0.245   0.228   0.387   0.229   0.251   0.080   0.252
              0.023   0.016   0.002   0.016   0.024
  17  1.998   0.250   0.244   0.226   0.389   0.229   0.253   0.080   0.249
              0.024   0.015   0.002   0.015   0.024
  18  1.888   0.177   0.278   0.088   0.392   0.235   0.340   0.072   0.246
              0.018   0.004   0.001   0.016   0.021
  20  1.888   0.176   0.279   0.085   0.392   0.236   0.343   0.072   0.245
              0.018   0.004   0.001   0.016   0.021
  21  1.889   0.174   0.279   0.159   0.392   0.159   0.293   0.072   0.301
              0.024   0.010   0.001   0.010   0.015
  22  1.998   0.249   0.244   0.226   0.388   0.228   0.253   0.081   0.251
              0.024   0.015   0.002   0.015   0.024
  23  2.000   0.248   0.245   0.228   0.386   0.228   0.251   0.081   0.253
              0.023   0.016   0.002   0.016   0.024
  24  2.000   0.247   0.245   0.229   0.387   0.228   0.251   0.081   0.251
              0.023   0.016   0.002   0.016   0.024
  25  2.001   0.247   0.245   0.229   0.387   0.228   0.251   0.081   0.251
              0.023   0.016   0.002   0.016   0.024
  26  2.001   0.247   0.245   0.229   0.385   0.229   0.251   0.082   0.252
              0.023   0.016   0.002   0.016   0.024
  27  1.998   0.249   0.244   0.224   0.388   0.228   0.253   0.081   0.251
              0.024   0.015   0.002   0.015   0.024
  28  1.972   0.236   0.249   0.216   0.374   0.209   0.255   0.086   0.265
              0.024   0.015   0.002   0.017   0.024
  29  1.905   0.186   0.276   0.085   0.407   0.251   0.341   0.064   0.236
              0.017   0.004   0.001   0.016   0.021
  31  1.986   0.245   0.246   0.215   0.386   0.230   0.257   0.081   0.247
              0.024   0.015   0.002   0.016   0.024
  32  2.001   0.248   0.245   0.229   0.388   0.230   0.251   0.081   0.250
              0.023   0.016   0.002   0.016   0.024
  33  2.001   0.248   0.245   0.230   0.388   0.229   0.250   0.081   0.251
              0.023   0.016   0.002   0.016   0.024
  34  2.000   0.248   0.245   0.231   0.385   0.229   0.250   0.081   0.251
              0.023   0.016   0.002   0.016   0.024
  35  2.000   0.249   0.244   0.226   0.390   0.230   0.251   0.080   0.250
              0.023   0.015   0.002   0.015   0.024
  36  1.973   0.234   0.249   0.216   0.372   0.214   0.255   0.087   0.261
              0.024   0.015   0.002   0.018   0.025
  37  1.907   0.184   0.276   0.086   0.404   0.249   0.343   0.067   0.237
              0.016   0.005   0.001   0.016   0.022
  39  2.001   0.248   0.245   0.230   0.388   0.229   0.250   0.080   0.250
              0.023   0.016   0.002   0.016   0.024
  40  1.987   0.244   0.247   0.221   0.383   0.226   0.252   0.082   0.252
              0.023   0.016   0.002   0.017   0.024
  41  1.987   0.246   0.245   0.215   0.387   0.231   0.255   0.081   0.247
[...]
         17.92  17.96  18.20  18.22  18.34  18.47  18.47  18.66  18.77  18.82
         18.83  19.01  19.08  19.24  19.33  19.37  19.45  19.64  19.78  19.82
         20.16  20.27  20.59  20.63  20.84  20.87  20.88  20.95  21.06  21.09
         21.15  21.26  21.29  21.36  21.38  21.50  21.53  21.76  21.91  21.97
         22.00  22.07  22.26  22.29  22.43  22.61  22.77  22.77  22.77  22.87
         23.08  23.11  23.16  23.21  23.35  23.63  23.82  24.21  24.40  24.44
         24.70  24.93  25.50  25.55  25.61  25.71  25.77  26.18  26.46  26.52
         27.17  27.96  28.37  28.55  28.93  29.35  30.16  30.38  30.77  30.94
         31.16  31.36  31.61  31.83  31.93  32.49  32.65  32.73  33.08  33.12
         33.29  33.87  34.68  34.69  34.91  35.10  35.18  35.33  35.40  35.70
         35.78  35.88  36.00  36.60  36.81  36.86  37.49  37.60  37.91  37.99
         38.92  39.32  39.46  39.48  40.31  40.36  40.68  40.70  42.13  42.69
         42.74  43.06  43.15  43.30  43.45  43.77  44.28  44.33  44.76  45.13
         45.23  45.30  46.05  46.21  46.28  46.58  46.76  46.95  46.97  47.28
         47.48  47.83  47.91  48.06  48.17  48.35  49.11  49.24  49.31  49.33
         49.38  49.67  49.69  50.14  50.33  50.77  50.78  51.25  51.35  51.39
         51.75  51.86  52.21  52.49  52.71  52.91  53.41  53.46  53.54  53.66
         53.96  54.06  54.08  54.29  54.74  55.16  55.52  55.81  56.02  56.20
         56.27  56.66  56.76  56.90  57.71  58.19  58.33  59.15  59.39  59.39
         59.51  59.82  59.94  60.23  60.31  60.39  60.51  60.69  60.81  60.96
         61.45  61.48  62.36  62.52  62.85  63.48  63.76  63.92  64.10  65.46
         66.31  66.59  67.35  68.30  68.87  69.49  70.09  70.88  71.34  71.36
         71.69  71.76  72.35  72.41  72.71  72.75  73.08  73.42  74.13  74.20
         74.23  74.54  74.83  75.55  75.61  75.83  76.11  76.55  76.93  77.45
         79.95  80.37  80.45  80.52  80.72  80.88  82.14  82.18  82.75  83.05
         83.44  86.01  86.05  86.27  87.57  87.97  89.46  90.47  90.84  91.83
         92.53  94.37  94.88  95.71  97.46  97.63 100.01 100.40 101.24 101.94
        102.82 103.35 104.14 104.67 107.52 108.94 109.66 112.45 114.34 115.40
        115.88 116.12 116.58 117.14 118.83 120.73 121.30 122.27 123.10 123.46
        130.98 131.82 132.60 133.61 134.98 136.16 136.99 137.86 139.72 140.86
        142.91 145.02 145.29 149.17 149.58 150.62 177.66 178.63
  50  2 -22.32 -22.26 -21.77 -21.62 -20.88 -20.66 -19.73 -19.68 -19.61 -19.43
        -19.14 -18.97 -18.33 -18.28 -18.14 -17.86 -17.06 -17.00 -16.09 -15.92
        -15.26 -15.12 -14.85 -14.56 -14.40 -14.19 -13.80 -13.62 -13.58 -13.37
        -13.32 -12.95 -12.53 -12.28 -11.93 -11.72 -11.16 -11.02 -10.92 -10.89
        -10.53 -10.46 -10.45 -10.09 -10.08 -10.01  -9.90  -9.89  -9.79  -9.74
         -9.74  -9.57  -9.48  -9.13  -8.91  -8.89  -8.65  -8.49  -8.42  -8.39
         -8.01  -7.85  -7.66  -7.51  -7.49  -7.44  -7.42  -7.27  -6.87  -6.80
         -6.42  -6.14  -5.84  -5.80  -4.80  -4.71  -2.42  -2.36  -1.49  -1.41
         -1.06  -1.02  -0.28  -0.19   0.42   0.54   0.66   0.74   2.05   2.08
          2.57   2.58   2.61   2.71   3.86   3.94   4.24   4.45   4.50   4.60
          4.71   4.75   4.97   5.13   5.17   5.36   5.53   5.81   5.96   6.18
          6.22   6.32   6.41   6.48   6.58   6.92   6.93   7.46   7.99   8.05
          8.32   8.45   8.55   8.56   8.59   8.59   8.86   9.02   9.05   9.21
          9.30   9.51   9.79   9.82   9.84   9.98  10.17  10.29  10.36  10.46
         10.59  10.80  10.83  10.90  10.95  11.00  11.03  11.06  11.09  11.49
         11.54  11.56  11.76  11.78  11.80  11.85  11.97  12.15  12.23  12.28
         12.35  12.40  12.53  12.59  12.63  12.63  12.66  12.68  12.69  12.81
         12.84  12.85  12.96  13.07  13.07  13.34  13.56  13.75  13.79  13.81
         13.85  14.01  14.18  14.23  14.34  14.42  14.49  14.80  15.23  15.55
         15.84  15.93  16.30  16.34  16.40  16.51  17.43  17.54  17.56  17.92
         17.92  17.96  18.20  18.22  18.34  18.47  18.47  18.66  18.77  18.82
         18.83  19.01  19.08  19.24  19.33  19.37  19.45  19.64  19.78  19.82
         20.16  20.27  20.59  20.63  20.84  20.87  20.88  20.95  21.06  21.09
         21.15  21.26  21.29  21.36  21.38  21.50  21.53  21.76  21.91  21.97
         22.00  22.07  22.26  22.29  22.43  22.61  22.77  22.77  22.77  22.87
         23.08  23.11  23.16  23.21  23.35  23.63  23.82  24.21  24.40  24.44
         24.70  24.93  25.50  25.55  25.61  25.71  25.77  26.18  26.46  26.52
         27.17  27.96  28.37  28.55  28.93  29.35  30.16  30.38  30.77  30.94
         31.16  31.36  31.61  31.83  31.93  32.49  32.65  32.73  33.08  33.12
         33.29  33.87  34.68  34.69  34.91  35.10  35.18  35.33  35.40  35.70
         35.78  35.88  36.00  36.60  36.81  36.86  37.49  37.60  37.91  37.99
         38.92  39.32  39.46  39.48  40.31  40.36  40.68  40.70  42.13  42.69
         42.74  43.06  43.15  43.30  43.45  43.77  44.28  44.33  44.76  45.13
         45.23  45.30  46.05  46.21  46.28  46.58  46.76  46.95  46.97  47.28
         47.48  47.83  47.91  48.06  48.17  48.35  49.11  49.24  49.31  49.33
         49.38  49.67  49.69  50.14  50.33  50.77  50.78  51.25  51.35  51.39
         51.75  51.86  52.21  52.49  52.71  52.91  53.41  53.46  53.54  53.66
         53.96  54.06  54.08  54.29  54.74  55.16  55.52  55.81  56.02  56.20
         56.27  56.66  56.76  56.90  57.71  58.19  58.33  59.15  59.39  59.39
         59.51  59.82  59.94  60.23  60.31  60.39  60.51  60.69  60.81  60.96
         61.45  61.48  62.36  62.52  62.85  63.48  63.76  63.92  64.10  65.46
         66.31  66.59  67.35  68.30  68.87  69.49  70.09  70.88  71.34  71.36
         71.69  71.76  72.35  72.41  72.71  72.75  73.08  73.42  74.13  74.20
         74.23  74.54  74.83  75.55  75.61  75.83  76.11  76.55  76.93  77.45
         79.95  80.37  80.45  80.52  80.72  80.88  82.14  82.18  82.75  83.05
         83.44  86.01  86.05  86.27  87.57  87.97  89.46  90.47  90.84  91.83
         92.53  94.37  94.88  95.71  97.46  97.63 100.01 100.40 101.24 101.94
        102.82 103.35 104.14 104.67 107.52 108.94 109.66 112.45 114.34 115.40
        115.88 116.12 116.58 117.14 118.83 120.73 121.30 122.27 123.10 123.46
        130.98 131.82 132.60 133.61 134.98 136.16 136.99 137.86 139.72 140.86
        142.91 145.02 145.29 149.17 149.58 150.62 177.66 178.63
  51  1 -22.32 -22.26 -21.77 -21.62 -20.88 -20.66 -19.71 -19.70 -19.62 -19.43
        -19.13 -18.98 -18.32 -18.28 -18.14 -17.86 -17.05 -17.01 -16.09 -15.92
        -15.26 -15.11 -14.85 -14.56 -14.40 -14.20 -13.80 -13.60 -13.60 -13.35
        -13.34 -12.95 -12.53 -12.28 -11.93 -11.72 -11.15 -11.01 -10.93 -10.89
        -10.52 -10.47 -10.45 -10.09 -10.09 -10.01  -9.90  -9.89  -9.79  -9.74
         -9.74  -9.57  -9.48  -9.13  -8.91  -8.89  -8.66  -8.47  -8.44  -8.39
         -8.00  -7.85  -7.66  -7.49  -7.48  -7.45  -7.43  -7.27  -6.84  -6.83
         -6.42  -6.14  -5.84  -5.80  -4.79  -4.72  -2.39  -2.38  -1.49  -1.41
         -1.04  -1.03  -0.24  -0.23   0.43   0.54   0.69   0.71   2.05   2.08
          2.58   2.58   2.61   2.70   3.86   3.94   4.24   4.45   4.50   4.60
          4.71   4.74   4.97   5.14   5.16   5.36   5.53   5.81   5.96   6.18
          6.23   6.31   6.42   6.48   6.58   6.92   6.93   7.46   7.99   8.04
          8.32   8.45   8.55   8.56   8.59   8.59   8.86   9.04   9.04   9.23
          9.27   9.51   9.80   9.82   9.84   9.98  10.17  10.29  10.35  10.46
         10.59  10.80  10.83  10.90  10.95  11.00  11.03  11.07  11.08  11.51
         11.54  11.54  11.76  11.78  11.81  11.84  11.97  12.14  12.23  12.28
         12.34  12.40  12.54  12.59  12.62  12.63  12.66  12.68  12.69  12.81
         12.84  12.85  12.96  13.07  13.07  13.34  13.56  13.76  13.79  13.81
         13.85  14.01  14.18  14.23  14.34  14.42  14.48  14.80  15.23  15.55
         15.84  15.93  16.30  16.34  16.41  16.49  17.43  17.54  17.56  17.92
         17.92  17.96  18.20  18.22  18.34  18.47  18.47  18.66  18.78  18.82
         18.83  19.00  19.07  19.24  19.33  19.37  19.44  19.64  19.78  19.82
         20.16  20.27  20.60  20.63  20.84  20.87  20.88  20.95  21.06  21.11
         21.13  21.26  21.29  21.36  21.38  21.50  21.52  21.76  21.92  21.95
         22.00  22.07  22.26  22.30  22.43  22.61  22.77  22.77  22.77  22.87
         23.08  23.11  23.16  23.21  23.36  23.63  23.82  24.22  24.40  24.44
         24.70  24.92  25.52  25.56  25.60  25.70  25.77  26.18  26.48  26.50
         27.17  27.96  28.38  28.55  28.93  29.34  30.16  30.38  30.77  30.94
         31.16  31.36  31.61  31.83  31.93  32.49  32.65  32.72  33.08  33.11
         33.29  33.87  34.68  34.69  34.91  35.10  35.18  35.37  35.37  35.70
         35.77  35.87  36.00  36.59  36.81  36.86  37.49  37.60  37.90  37.99
         38.92  39.33  39.46  39.47  40.31  40.36  40.68  40.70  42.13  42.69
         42.74  43.06  43.16  43.30  43.45  43.77  44.28  44.33  44.76  45.13
         45.22  45.29  46.05  46.21  46.29  46.57  46.76  46.94  46.98  47.27
         47.48  47.84  47.91  48.05  48.17  48.35  49.12  49.23  49.31  49.34
         49.38  49.67  49.69  50.14  50.33  50.77  50.78  51.26  51.34  51.39
         51.78  51.83  52.21  52.49  52.72  52.90  53.41  53.46  53.53  53.67
         53.95  54.06  54.08  54.29  54.75  55.15  55.52  55.81  56.02  56.22
         56.25  56.68  56.75  56.90  57.72  58.19  58.33  59.17  59.40  59.47
         59.51  59.83  59.94  60.13  60.30  60.39  60.51  60.69  60.80  60.95
         61.45  61.47  62.36  62.52  62.85  63.48  63.76  63.92  64.09  65.46
         66.32  66.59  67.35  68.30  68.87  69.49  70.09  70.91  71.33  71.34
         71.70  71.75  72.35  72.41  72.72  72.74  73.09  73.42  74.12  74.20
         74.23  74.54  74.83  75.55  75.63  75.81  76.11  76.55  76.93  77.44
         79.96  80.40  80.42  80.52  80.76  80.84  82.14  82.20  82.74  83.03
         83.44  86.04  86.04  86.26  87.57  87.98  89.47  90.57  90.75  91.80
         92.53  94.37  94.88  95.71  97.45  97.62 100.01 100.41 101.24 101.94
        102.83 103.36 104.14 104.65 107.52 108.95 109.66 112.50 114.35 115.43
        115.92 116.13 116.69 116.96 118.90 120.88 121.11 122.23 123.12 123.38
        131.14 131.69 132.61 133.61 135.05 136.15 137.24 137.54 139.71 140.86
        142.90 145.01 145.30 149.17 149.57 150.61 177.88 178.42
  51  2 -22.32 -22.26 -21.77 -21.62 -20.88 -20.66 -19.71 -19.70 -19.62 -19.43
        -19.13 -18.98 -18.32 -18.28 -18.14 -17.86 -17.05 -17.01 -16.09 -15.92
        -15.26 -15.11 -14.85 -14.56 -14.40 -14.20 -13.80 -13.60 -13.60 -13.35
        -13.34 -12.95 -12.53 -12.28 -11.93 -11.72 -11.15 -11.01 -10.93 -10.89
        -10.52 -10.47 -10.45 -10.09 -10.09 -10.01  -9.90  -9.89  -9.79  -9.74
         -9.74  -9.57  -9.48  -9.13  -8.91  -8.89  -8.66  -8.47  -8.44  -8.39
         -8.00  -7.85  -7.66  -7.49  -7.48  -7.45  -7.43  -7.27  -6.84  -6.83
         -6.42  -6.14  -5.84  -5.80  -4.79  -4.72  -2.39  -2.38  -1.49  -1.41
         -1.04  -1.03  -0.24  -0.23   0.43   0.54   0.69   0.71   2.05   2.08
          2.58   2.58   2.61   2.70   3.86   3.94   4.24   4.45   4.50   4.60
          4.71   4.74   4.97   5.14   5.16   5.36   5.53   5.81   5.96   6.18
          6.23   6.31   6.42   6.48   6.58   6.92   6.93   7.46   7.99   8.04
          8.32   8.45   8.55   8.56   8.59   8.59   8.86   9.04   9.04   9.23
          9.27   9.51   9.80   9.82   9.84   9.98  10.17  10.29  10.35  10.46
         10.59  10.80  10.83  10.90  10.95  11.00  11.03  11.07  11.08  11.51
         11.54  11.54  11.76  11.78  11.81  11.84  11.97  12.14  12.23  12.28
         12.34  12.40  12.54  12.59  12.62  12.63  12.66  12.68  12.69  12.81
         12.84  12.85  12.96  13.07  13.07  13.34  13.56  13.76  13.79  13.81
         13.85  14.01  14.18  14.23  14.34  14.42  14.48  14.80  15.23  15.55
         15.84  15.93  16.30  16.34  16.41  16.49  17.43  17.54  17.56  17.92
         17.92  17.96  18.20  18.22  18.34  18.47  18.47  18.66  18.78  18.82
         18.83  19.00  19.07  19.24  19.33  19.37  19.44  19.64  19.78  19.82
         20.16  20.27  20.60  20.63  20.84  20.87  20.88  20.95  21.06  21.11
         21.13  21.26  21.29  21.36  21.38  21.50  21.52  21.76  21.92  21.95
         22.00  22.07  22.26  22.30  22.43  22.61  22.77  22.77  22.77  22.87
         23.08  23.11  23.16  23.21  23.36  23.63  23.82  24.22  24.40  24.44
         24.70  24.92  25.52  25.56  25.60  25.70  25.77  26.18  26.48  26.50
         27.17  27.96  28.38  28.55  28.93  29.34  30.16  30.38  30.77  30.94
         31.16  31.36  31.61  31.83  31.93  32.49  32.65  32.72  33.08  33.11
         33.29  33.87  34.68  34.69  34.91  35.10  35.18  35.37  35.37  35.70
         35.77  35.87  36.00  36.59  36.81  36.86  37.49  37.60  37.90  37.99
         38.92  39.33  39.46  39.47  40.31  40.36  40.68  40.70  42.13  42.69
         42.74  43.06  43.16  43.30  43.45  43.77  44.28  44.33  44.76  45.13
         45.22  45.29  46.05  46.21  46.29  46.57  46.76  46.94  46.98  47.27
         47.48  47.84  47.91  48.05  48.17  48.35  49.12  49.23  49.31  49.34
         49.38  49.67  49.69  50.14  50.33  50.77  50.78  51.26  51.34  51.39
         51.78  51.83  52.21  52.49  52.72  52.90  53.41  53.46  53.53  53.67
         53.95  54.06  54.08  54.29  54.75  55.15  55.52  55.81  56.02  56.22
         56.25  56.68  56.75  56.90  57.72  58.19  58.33  59.17  59.40  59.47
         59.51  59.83  59.94  60.13  60.30  60.39  60.51  60.69  60.80  60.95
         61.45  61.47  62.36  62.52  62.85  63.48  63.76  63.92  64.09  65.46
         66.32  66.59  67.35  68.30  68.87  69.49  70.09  70.91  71.33  71.34
         71.70  71.75  72.35  72.41  72.72  72.74  73.09  73.42  74.12  74.20
         74.23  74.54  74.83  75.55  75.63  75.81  76.11  76.55  76.93  77.44
         79.96  80.40  80.42  80.52  80.76  80.84  82.14  82.20  82.74  83.03
         83.44  86.04  86.04  86.26  87.57  87.98  89.47  90.57  90.75  91.80
         92.53  94.37  94.88  95.71  97.45  97.62 100.01 100.41 101.24 101.94
        102.83 103.36 104.14 104.65 107.52 108.95 109.66 112.50 114.35 115.43
        115.92 116.13 116.69 116.96 118.90 120.88 121.11 122.23 123.12 123.38
        131.14 131.69 132.61 133.61 135.05 136.15 137.24 137.54 139.71 140.86
        142.90 145.01 145.30 149.17 149.57 150.61 177.88 178.42
siesta: Fermi energy =      -3.624857 eV

siesta: Program's energy decomposition (eV):
siesta: Ebs     =     -1888.452177
siesta: Eions   =      9351.460319
siesta: Ena     =      1960.236644
siesta: Ekin    =      4090.846308
siesta: Enl     =      -539.961516
siesta: Eso     =         0.000000
siesta: Eldau   =         0.000000
siesta: DEna    =      -108.756652
siesta: DUscf   =        10.780400
siesta: DUext   =         0.000000
siesta: Enegf   =         0.000000
siesta: Exc     =     -1774.566603
siesta: eta*DQ  =         0.000000
siesta: Emadel  =         0.000000
siesta: Emeta   =         0.000000
siesta: Emolmec =         0.000000
siesta: Ekinion =         0.000000
siesta: Eharris =     -5712.881737
siesta: Etot    =     -5712.881737
siesta: FreeEng =     -5712.882346

siesta: Final energy (eV):
siesta:  Band Struct. =   -1888.452177
siesta:       Kinetic =    4090.846308
siesta:       Hartree =   51984.062610
siesta:       Eldau   =       0.000000
siesta:       Eso     =       0.000000
siesta:    Ext. field =       0.000000
siesta:       Enegf   =       0.000000
siesta:   Exch.-corr. =   -1774.566603
siesta:  Ion-electron = -107627.394410
siesta:       Ion-ion =   47614.170358
siesta:       Ekinion =       0.000000
siesta:         Total =   -5712.881737
siesta:         Fermi =      -3.624857

siesta: Stress tensor (static) (eV/Ang**3):
siesta:     0.000185    0.000010   -0.000000
siesta:     0.000010    0.000002   -0.000000
siesta:    -0.000000   -0.000000    0.000003

siesta: Cell volume =       8870.000000 Ang**3

siesta: Pressure (static):
siesta:                Solid            Molecule  Units
siesta:          -0.00000069         -0.00000070  Ry/Bohr**3
siesta:          -0.00006346         -0.00006396  eV/Ang**3
siesta:          -0.10167859         -0.10246940  kBar
(Free)E+ p_basis*V_orbitals  =       -5700.334387
(Free)Eharris+ p_basis*V_orbitals  =       -5700.334387

siesta: Total spin polarization (Qup-Qdown) =   -0.000000

siesta: Electric dipole (a.u.)  =    0.000000    0.000207   -0.000000
siesta: Electric dipole (Debye) =    0.000000    0.000527   -0.000000

Hirshfeld Net Atomic Populations:
Atom #    Qatom  Species
     1    0.026  H.ca                
     2    0.004  C.ca2               
     3    0.029  H.ca                
     4   -0.037  C.ca2               
     5    0.004  C.ca2               
     6    0.000  C.ca2               
     7    0.001  C.ca2               
     8   -0.001  C.ca2               
     9    0.033  H.ca                
    10   -0.036  C.ca2               
    11    0.006  C.ca2               
    12    0.002  C.ca2               
    13    0.000  C.ca2               
    14   -0.000  C.ca2               
    15   -0.000  C.ca2               
    16    0.000  C.ca2               
    17    0.002  C.ca2               
    18   -0.032  C.ca2               
    19    0.030  H.ca                
    20   -0.032  C.ca2               
    21   -0.034  C.ca2               
    22    0.002  C.ca2               
    23    0.000  C.ca2               
    24   -0.000  C.ca2               
    25   -0.000  C.ca2               
    26    0.000  C.ca2               
    27    0.002  C.ca2               
    28    0.006  C.ca2               
    29   -0.036  C.ca2               
    30    0.030  H.ca                
    31    0.005  C.ca2               
    32   -0.001  C.ca2               
    33   -0.001  C.ca2               
    34    0.001  C.ca2               
    35    0.000  C.ca2               
    36    0.004  C.ca2               
    37   -0.037  C.ca2               
    38    0.033  H.ca                
    39   -0.001  C.ca2               
    40    0.004  C.ca2               
    41    0.005  C.ca2               
    42    0.029  H.ca                
    43   -0.034  C.ca2               
    44    0.026  H.ca                

Voronoi Net Atomic Populations:
Atom #    Qatom  Species
     1    0.005  H.ca                
     2    0.003  C.ca2               
     3    0.005  H.ca                
     4   -0.014  C.ca2               
     5    0.004  C.ca2               
     6   -0.001  C.ca2               
     7    0.001  C.ca2               
     8   -0.003  C.ca2               
     9    0.008  H.ca                
    10   -0.014  C.ca2               
    11    0.006  C.ca2               
    12    0.002  C.ca2               
    13    0.001  C.ca2               
    14    0.001  C.ca2               
    15    0.002  C.ca2               
    16   -0.002  C.ca2               
    17   -0.000  C.ca2               
    18   -0.007  C.ca2               
    19    0.008  H.ca                
    20   -0.007  C.ca2               
    21   -0.008  C.ca2               
    22    0.003  C.ca2               
    23    0.005  C.ca2               
    24   -0.003  C.ca2               
    25   -0.001  C.ca2               
    26    0.002  C.ca2               
    27    0.001  C.ca2               
    28    0.006  C.ca2               
    29   -0.013  C.ca2               
    30    0.006  H.ca                
    31   -0.003  C.ca2               
    32    0.001  C.ca2               
    33    0.000  C.ca2               
    34    0.001  C.ca2               
    35   -0.000  C.ca2               
    36    0.005  C.ca2               
    37   -0.013  C.ca2               
    38    0.009  H.ca                
    39   -0.001  C.ca2               
    40    0.002  C.ca2               
    41    0.005  C.ca2               
    42    0.005  H.ca                
    43   -0.011  C.ca2               
    44    0.003  H.ca                
>> End of run:  17-APR-2018  16:51:18
Job completed
Job completed
