Siesta Version  : siesta-4.1--852
Architecture    : unknown
Compiler version: ifort (IFORT) 17.0.4 20170411
Compiler flags  : mpiifort -O1 -xHost -mp1 -fpp -ftz -I/scicomp/easybuild/CentOS/7.3.1611/Hasweell/software/imkl/2017.3.196-iimpi-2017b/mkl/include -I/scratch/scicomp/easybuild/CentOS/7.3.1611/Haswell/software/netCDF-Fortran/4.4.4-intel-2017b/include -I/scratch/scicomp/easybuild/CentOS/7.3.1611/Haswell/software/netCDF/4.4.1.1-intel-2017b/include
PP flags        :  -DFC_HAVE_ABORT -DMPI -DCDF -DNCDF -DNCDF_4 -DGRID_DP -DNCDF_PARALLEL
Libraries       : libncdf.a libfdict.a -L/scratch/scicomp/easybuild/CentOS/7.3.1611/Haswell/sofftware/netCDF-Fortran/4.4.4-intel-2017b/lib -lnetcdff -L/scratch/scicomp/easybuild/CentOS/7.3.1611/Haswell/software/cURL/7.56.0-GCCcore-6.4.0/lib -lcurl -L/scratch/scicomp/easybuild/CentOS/7.3.1611/Haswell/software/netCDF/4.4.1.1-intel-2017b/lib64 -lnetcdf -L/scratch/scicomp/easybuild/CentOS/7.3.1611/Haswell/software/HDF5/1.10.1-intel-2017b/lib -lhdf5hl_fortran -lhdf5_fortran -lhdf5_hl -lhdf5 -L/scratch/scicomp/easybuild/CentOS/7.3.1611/Haswell/software/Szip/2.1.1-GCCcore-6.4.0/lib -lsz -L/scratch/scicomp/easybuild/CentOS/7.3.1611/Haswell/software/zlib/1.2.11-GCCcore-6.4.0/lib -lz /scicomp/easybuild/CentOS/7.3.1611/Haswell/software/imkl/2017.3.196-iimpi-2017b/mkl/lib/intel64/libmkl_scalapack_lp64.a -Wl,--start-group /scicomp/easybuild/CentOS/7.3.1611/Haswell/software/imkl/2017.3.196-iimpi-2017b/mkl/lib/intel64/libmkl_intel_lp64.a /scicomp/easybuild/CentOS/7.3.1611/Haswell/software/imkl/2017.3.196-iimpi-2017b/mkl/lib/intel64/libmkl_sequential.a /scicomp/easybuild/CentOS/7.3.1611/Haswell/software/imkl/2017.3.196-iimpi-2017b/mkl/lib/intel64/libmkl_core.a /scicomp/easybuild/CentOS/7.3.1611/Haswell/software/imkl/2017.3.196-iimpi-2017b/mkl/lib/intel64/libmkl_blacs_intelmpi_lp64.a -Wl,--end-group -lpthread -lm -ldl
PARALLEL version
NetCDF support
NetCDF-4 support
NetCDF-4 MPI-IO support

* Running on 24 nodes in parallel
>> Start of run:  17-APR-2018  16:11:50

                           ***********************       
                           *  WELCOME TO SIESTA  *       
                           ***********************       

reinit: Reading from standard input
reinit: Dumped input in INPUT_TMP.20162
************************** Dump of input data file ****************************
SystemTitle molecule
SystemLabel molecule
SolutionMethod     diagon
TS.HS.Save         true
MD.TypeOfRun  CG
MD.TypeOfRun  Broyden
MD.Broyden.Cycle.On.Maxit F
MD.NumCGsteps  1000
MD.MaxForceTol 0.002 eV/Ang
Diag.ParallelOverK true
%block kgrid_Monkhorst_Pack
 100    0    0    0.0
  0    1    0    0.0
  0    0    1    0.0
%endblock kgrid_Monkhorst_Pack
MaxSCFIterations      3000
SCFMustConverge       true
DM.Tolerance          1.d-5
DM.UseSaveDM          true
DM.NumberPulay	      7
DM.MixingWeight       0.1
MD.UseSaveXV          true
XC.functional         LDA
XC.authors     	      CA
MeshCutoff            400. Ry
PAO.BasisSize   DZP
PAO.BasisType   split
%block ChemicalSpeciesLabel
    1   1 H.ca
    2   6 C.ca2
%endblock ChemicalSpeciesLabel
%include STRUCT.fdf
SpinPolarized   true
#FixSpin  true
#Spin.Fix true
#Spin.Total 0
#TotalSpin  0
%block DM.InitSpin
41   1.
10  -1.
%endblock DM.InitSpin
WriteMullikenPop 1
WriteHirshfeldPop true
WriteVoronoiPop true
WriteEigenvalues true
WriteWaveFunctions true
************************** End of input data file *****************************

reinit: -----------------------------------------------------------------------
reinit: System Name: 
reinit: -----------------------------------------------------------------------
reinit: System Label: molecule
reinit: -----------------------------------------------------------------------

initatom: Reading input for the pseudopotentials and atomic orbitals ----------
Species number:   1 Atomic number:    1 Label: H.ca
Species number:   2 Atomic number:    6 Label: C.ca2
 
Ground state valence configuration:   1s01
Reading pseudopotential information in formatted form from H.ca.psf

Pseudopotential generated from a relativistic atomic calculation

Valence configuration for pseudopotential generation:
1s( 1.00) rc: 1.31
2p( 0.00) rc: 1.31
3d( 0.00) rc: 0.37
4f( 0.00) rc: 1.31
Ground state valence configuration:   2s02  2p02
Reading pseudopotential information in formatted form from C.ca2.psf

Pseudopotential generated from a relativistic atomic calculation

Valence configuration for pseudopotential generation:
2s( 2.00) rc: 1.54
2p( 2.00) rc: 1.54
3d( 0.00) rc: 1.54
4f( 0.00) rc: 1.54
For H.ca, standard SIESTA heuristics set lmxkb to 2
 (one more than the basis l, including polarization orbitals).
Use PS.lmax or PS.KBprojectors blocks to override.
For C.ca2, standard SIESTA heuristics set lmxkb to 3
 (one more than the basis l, including polarization orbitals).
Use PS.lmax or PS.KBprojectors blocks to override.

<basis_specs>
===============================================================================
H.ca                 Z=   1    Mass=  1.0100        Charge= 0.17977+309
Lmxo=0 Lmxkb= 2    BasisType=split      Semic=F
L=0  Nsemic=0  Cnfigmx=1
          n=1  nzeta=2  polorb=1
            splnorm:   0.15000    
               vcte:    0.0000    
               rinn:    0.0000    
               qcoe:    0.0000    
               qyuk:    0.0000    
               qwid:   0.10000E-01
                rcs:    0.0000      0.0000    
            lambdas:    1.0000      1.0000    
-------------------------------------------------------------------------------
L=0  Nkbl=1  erefs: 0.17977+309
L=1  Nkbl=1  erefs: 0.17977+309
L=2  Nkbl=1  erefs: 0.17977+309
===============================================================================
</basis_specs>

atom: Called for H.ca                  (Z =   1)

read_vps: Pseudopotential generation method:
read_vps: ATM3.3.2  Troullier-Martins                       
Total valence charge:    1.00000

xc_check: Exchange-correlation functional:
xc_check: Ceperley-Alder
V l=0 = -2*Zval/r beyond r=  1.2977
V l=1 = -2*Zval/r beyond r=  1.2815
V l=2 = -2*Zval/r beyond r=  1.1307
All V_l potentials equal beyond r=  1.2977
This should be close to max(r_c) in ps generation
All pots = -2*Zval/r beyond r=  1.2977

VLOCAL1: 99.0% of the norm of Vloc inside     25.776 Ry
VLOCAL1: 99.9% of the norm of Vloc inside     58.745 Ry
atom: Maximum radius for 4*pi*r*r*local-pseudopot. charge    1.52711
atom: Maximum radius for r*vlocal+2*Zval:    1.28155
GHOST: No ghost state for L =  0
GHOST: No ghost state for L =  1
GHOST: No ghost state for L =  2

KBgen: Kleinman-Bylander projectors: 
   l= 0   rc=  1.452513   el= -0.467311   Ekb= -1.940806   kbcos= -0.353010
   l= 1   rc=  1.752576   el=  0.001430   Ekb= -0.484365   kbcos= -0.024070
   l= 2   rc=  1.774652   el=  0.002365   Ekb= -0.503986   kbcos= -0.001615

KBgen: Total number of  Kleinman-Bylander projectors:    9
atom: -------------------------------------------------------------------------

atom: SANKEY-TYPE ORBITALS:
atom: Selected multiple-zeta basis: split     

SPLIT: Orbitals with angular momentum L= 0

SPLIT: Basis orbitals for state 1s

SPLIT: PAO cut-off radius determined from an
SPLIT: energy shift=  0.020000 Ry

   izeta = 1
                 lambda =    1.000000
                     rc =    4.828263
                 energy =   -0.449360
                kinetic =    0.925772
    potential(screened) =   -1.375132
       potential(ionic) =   -1.911259

   izeta = 2
                 rmatch =    3.854947
              splitnorm =    0.150000
                 energy =   -0.336131
                kinetic =    1.498125
    potential(screened) =   -1.834256
       potential(ionic) =   -2.406171

POLgen: Perturbative polarization orbital with L=  1

POLgen: Polarization orbital for state 1s

   izeta = 1
                     rc =    4.828263
                 energy =    0.707058
                kinetic =    1.398648
    potential(screened) =   -0.691590
       potential(ionic) =   -1.171958
atom: Total number of Sankey-type orbitals:  5

atm_pop: Valence configuration (for local Pseudopot. screening):
 1s( 1.00)                                                            
Vna: chval, zval:    1.00000   1.00000

Vna:  Cut-off radius for the neutral-atom potential:   4.828263

atom: _________________________________________________________________________

<basis_specs>
===============================================================================
C.ca2                Z=   6    Mass=  12.010        Charge= 0.17977+309
Lmxo=1 Lmxkb= 3    BasisType=split      Semic=F
L=0  Nsemic=0  Cnfigmx=2
          n=1  nzeta=2  polorb=0
            splnorm:   0.15000    
               vcte:    0.0000    
               rinn:    0.0000    
               qcoe:    0.0000    
               qyuk:    0.0000    
               qwid:   0.10000E-01
                rcs:    0.0000      0.0000    
            lambdas:    1.0000      1.0000    
L=1  Nsemic=0  Cnfigmx=2
          n=1  nzeta=2  polorb=1
            splnorm:   0.15000    
               vcte:    0.0000    
               rinn:    0.0000    
               qcoe:    0.0000    
               qyuk:    0.0000    
               qwid:   0.10000E-01
                rcs:    0.0000      0.0000    
            lambdas:    1.0000      1.0000    
-------------------------------------------------------------------------------
L=0  Nkbl=1  erefs: 0.17977+309
L=1  Nkbl=1  erefs: 0.17977+309
L=2  Nkbl=1  erefs: 0.17977+309
L=3  Nkbl=1  erefs: 0.17977+309
===============================================================================
</basis_specs>

atom: Called for C.ca2                 (Z =   6)

read_vps: Pseudopotential generation method:
read_vps: ATM3.3.2  Troullier-Martins                       
Total valence charge:    4.00000

xc_check: Exchange-correlation functional:
xc_check: Ceperley-Alder
V l=0 = -2*Zval/r beyond r=  1.5227
V l=1 = -2*Zval/r beyond r=  1.5227
V l=2 = -2*Zval/r beyond r=  1.5227
V l=3 = -2*Zval/r beyond r=  1.5038
All V_l potentials equal beyond r=  1.5227
This should be close to max(r_c) in ps generation
All pots = -2*Zval/r beyond r=  1.5227

VLOCAL1: 99.0% of the norm of Vloc inside     18.722 Ry
VLOCAL1: 99.9% of the norm of Vloc inside     42.668 Ry
atom: Maximum radius for 4*pi*r*r*local-pseudopot. charge    1.83678
atom: Maximum radius for r*vlocal+2*Zval:    1.58088
GHOST: No ghost state for L =  0
GHOST: No ghost state for L =  1
GHOST: No ghost state for L =  2
GHOST: No ghost state for L =  3

KBgen: Kleinman-Bylander projectors: 
   l= 0   rc=  1.769164   el= -1.002383   Ekb=  4.944706   kbcos=  0.320005
   l= 1   rc=  1.769164   el= -0.398438   Ekb= -4.111874   kbcos= -0.367023
   l= 2   rc=  2.107589   el=  0.002326   Ekb= -1.050436   kbcos= -0.009341
   l= 3   rc=  2.358593   el=  0.003420   Ekb= -0.444500   kbcos= -0.001214

KBgen: Total number of  Kleinman-Bylander projectors:   16
atom: -------------------------------------------------------------------------

atom: SANKEY-TYPE ORBITALS:
atom: Selected multiple-zeta basis: split     

SPLIT: Orbitals with angular momentum L= 0

SPLIT: Basis orbitals for state 2s

SPLIT: PAO cut-off radius determined from an
SPLIT: energy shift=  0.020000 Ry

   izeta = 1
                 lambda =    1.000000
                     rc =    4.191849
                 energy =   -0.984359
                kinetic =    0.881234
    potential(screened) =   -1.865594
       potential(ionic) =   -5.477335

   izeta = 2
                 rmatch =    3.431921
              splitnorm =    0.150000
                 energy =   -0.853663
                kinetic =    1.298382
    potential(screened) =   -2.152045
       potential(ionic) =   -5.997528

SPLIT: Orbitals with angular momentum L= 1

SPLIT: Basis orbitals for state 2p

SPLIT: PAO cut-off radius determined from an
SPLIT: energy shift=  0.020000 Ry

   izeta = 1
                 lambda =    1.000000
                     rc =    4.870301
                 energy =   -0.378923
                kinetic =    2.540340
    potential(screened) =   -2.919263
       potential(ionic) =   -6.428536

   izeta = 2
                 rmatch =    3.475094
              splitnorm =    0.150000
                 energy =   -0.214881
                kinetic =    3.815219
    potential(screened) =   -4.030100
       potential(ionic) =   -7.921348

POLgen: Perturbative polarization orbital with L=  2

POLgen: Polarization orbital for state 2p

   izeta = 1
                     rc =    4.870301
                 energy =    1.281120
                kinetic =    2.631157
    potential(screened) =   -1.350037
       potential(ionic) =   -4.295491
atom: Total number of Sankey-type orbitals: 13

atm_pop: Valence configuration (for local Pseudopot. screening):
 2s( 2.00)                                                            
 2p( 2.00)                                                            
Vna: chval, zval:    4.00000   4.00000

Vna:  Cut-off radius for the neutral-atom potential:   4.870301

atom: _________________________________________________________________________

prinput: Basis input ----------------------------------------------------------

PAO.BasisType split     

%block ChemicalSpeciesLabel
    1    1 H.ca                    # Species index, atomic number, species label
    2    6 C.ca2                   # Species index, atomic number, species label
%endblock ChemicalSpeciesLabel

%block PAO.Basis                 # Define Basis set
H.ca                  1                    # Species label, number of l-shells
 n=1   0   2 P   1                   # n, l, Nzeta, Polarization, NzetaPol
   4.828      3.855   
   1.000      1.000   
C.ca2                 2                    # Species label, number of l-shells
 n=2   0   2                         # n, l, Nzeta 
   4.192      3.432   
   1.000      1.000   
 n=2   1   2 P   1                   # n, l, Nzeta, Polarization, NzetaPol
   4.870      3.475   
   1.000      1.000   
%endblock PAO.Basis

prinput: ----------------------------------------------------------------------

Dumping basis to NetCDF file H.ca.ion.nc
Dumping basis to NetCDF file C.ca2.ion.nc
coor:   Atomic-coordinates input format  =     Cartesian coordinates
coor:                                          (in Angstroms)

siesta: WARNING: XV file not found

siesta: Atomic coordinates (Bohr) and species
siesta:     21.87173  11.66040  18.89727  1        1
siesta:     20.36282  15.46708  18.89727  2        2
siesta:     26.28947  10.55705  18.89727  1        3
siesta:     22.30438  13.69889  18.89727  2        4
siesta:     24.86490  14.39353  18.89727  2        5
siesta:     20.99859  18.09749  18.89727  2        6
siesta:     23.57481  18.84857  18.89727  2        7
siesta:     22.29687  23.30594  18.89727  2        8
siesta:     30.77136   9.42812  18.89727  1        9
siesta:     26.79404  12.58248  18.89727  2       10
siesta:     29.33576  13.27447  18.89727  2       11
siesta:     25.51705  17.01269  18.89727  2       12
siesta:     28.08882  17.74337  18.89727  2       13
siesta:     24.22718  21.45562  18.89727  2       14
siesta:     26.80835  22.19393  18.89727  2       15
siesta:     22.94640  25.91171  18.89727  2       16
siesta:     25.52695  26.65200  18.89727  2       17
siesta:     24.24532  31.11463  18.89727  2       18
siesta:     31.29170  11.44685  18.89727  2       19
siesta:     33.77476  12.15733  18.89727  2       20
siesta:     30.01483  15.88484  18.89727  2       21
siesta:     32.59857  16.60218  18.89727  2       22
siesta:     28.74043  20.34678  18.89727  2       23
siesta:     31.32535  21.07349  18.89727  2       24
siesta:     27.45791  24.80032  18.89727  2       25
siesta:     30.03872  25.53521  18.89727  2       26
siesta:     26.17580  29.25790  18.89727  2       27
siesta:     28.75355  29.99384  18.89727  2       28
siesta:     24.89406  33.72237  18.89727  2       29
siesta:     27.47630  34.45675  18.89727  2       30
siesta:     26.21885  38.94638  18.89727  2       31
siesta:     22.27461  39.68495  18.89727  1       32
siesta:     35.23622  10.67511  18.89727  1       33
siesta:     34.50719  14.72863  18.89727  2       34
siesta:     33.24989  19.21821  18.89727  2       35
siesta:     35.83207  19.95281  18.89727  2       36
siesta:     31.97206  23.68110  18.89727  2       37
siesta:     34.54976  24.41703  18.89727  2       38
siesta:     30.68698  28.13992  18.89727  2       39
siesta:     33.26798  28.87443  18.89727  2       40
siesta:     29.40056  32.60149  18.89727  2       41
siesta:     31.98540  33.32819  18.89727  2       42
siesta:     28.12774  37.07280  18.89727  2       43
siesta:     30.71140  37.79066  18.89727  2       44
siesta:     36.48057  22.56061  18.89727  2       45
siesta:     35.19882  27.02281  18.89727  2       46
siesta:     37.77923  27.76376  18.89727  2       47
siesta:     33.91758  31.48087  18.89727  2       48
siesta:     36.49879  32.21932  18.89727  2       49
siesta:     32.63705  35.93148  18.89727  2       50
siesta:     35.20879  36.66179  18.89727  2       51
siesta:     26.73844  40.93265  18.89727  1       52
siesta:     38.42913  30.36928  18.89727  2       53
siesta:     37.15121  34.82644  18.89727  2       54
siesta:     39.72754  35.57781  18.89727  2       55
siesta:     31.22275  39.80275  18.89727  1       56
siesta:     40.36304  38.20822  18.89727  2       57
siesta:     35.63787  38.69943  18.89727  1       58

siesta: System type = chain     

initatomlists: Number of atoms, orbitals, and projectors:     58   690   872

siesta: ******************** Simulation parameters ****************************
siesta:
siesta: The following are some of the parameters of the simulation.
siesta: A complete list of the parameters used, including default values,
siesta: can be found in file out.fdf
siesta:
redata: Spin configuration                          = collinear
redata: Number of spin components                   = 2
redata: Time-Reversal Symmetry                      = T
redata: Spin-spiral                                 = F
redata: Long output                                 =   F
redata: Number of Atomic Species                    =        2
redata: Charge density info will appear in .RHO file
redata: Write Mulliken Pop.                         = Atomic and Orbital charges
redata: Mesh Cutoff                                 =   400.0000 Ry
redata: Net charge of the system                    =     0.0000 |e|
redata: Min. number of SCF Iter                     =        0
redata: Max. number of SCF Iter                     =     3000
redata: SCF convergence failure will abort job
redata: SCF mix quantity                            = Hamiltonian
redata: Mix DM or H after convergence               =   F
redata: Recompute H after scf cycle                 =   F
redata: Mix DM in first SCF step                    =   T
redata: Write Pulay info on disk                    =   F
redata: New DM Mixing Weight                        =     0.1000
redata: New DM Occupancy tolerance                  = 0.000000000001
redata: No kicks to SCF
redata: DM Mixing Weight for Kicks                  =     0.5000
redata: Require Harris convergence for SCF          =   F
redata: Harris energy tolerance for SCF             =     0.000100 eV
redata: Require DM convergence for SCF              =   T
redata: DM tolerance for SCF                        =     0.000010
redata: Require EDM convergence for SCF             =   F
redata: EDM tolerance for SCF                       =     0.001000 eV
redata: Require H convergence for SCF               =   T
redata: Hamiltonian tolerance for SCF               =     0.001000 eV
redata: Require (free) Energy convergence for SCF   =   F
redata: (free) Energy tolerance for SCF             =     0.000100 eV
redata: Antiferro initial spin density              =   F
redata: Using Saved Data (generic)                  =   F
redata: Use continuation files for DM               =   T
redata: Neglect nonoverlap interactions             =   F
redata: Method of Calculation                       = Diagonalization
redata: Electronic Temperature                      =   299.9869 K
redata: Fix the spin of the system                  =   F
redata: Dynamics option                             = CG coord. optimization
redata: Variable cell                               =   F
redata: Use continuation files for CG               =   F
redata: Max atomic displ per move                   =     0.1058 Ang
redata: Maximum number of CG moves                  =     1000
redata: Force tolerance                             =     0.0020 eV/Ang
mix.SCF: Pulay mixing                            = Pulay
mix.SCF:    Variant                              = stable
mix.SCF:    History steps                        = 7
mix.SCF:    Linear mixing weight                 =     0.100000
mix.SCF:    Mixing weight                        =     0.100000
mix.SCF:    SVD condition                        = 0.1000E-07
mix.SCF: Spin-component mixing                   all
redata: Save all siesta data in one NC              =   F
redata: ***********************************************************************

%block SCF.Mixers
  Pulay
%endblock SCF.Mixers

%block SCF.Mixer.Pulay
  # Mixing method
  method pulay
  variant stable

  # Mixing options
  weight 0.1000
  weight.linear 0.1000
  history 7
%endblock SCF.Mixer.Pulay
 
DM_history_depth set to one: no extrapolation allowed by default for geometry relaxation
Size of DM history Fstack: 1
Total number of electrons:   208.000000
Total ionic charge:   208.000000

* ProcessorY, Blocksize:    4  24


* Orbital distribution balance (max,min):    48    24

k-point displ. along   1 input, could be:     0.00    0.50
 Kpoints in:           51 . Kpoints trimmed:           51

siesta: k-grid: Number of k-points =    51
siesta: k-grid: Cutoff (effective) =    10.000 Ang
siesta: k-grid: Supercell and displacements
siesta: k-grid:  100   0   0      0.000
siesta: k-grid:    0   1   0      0.000
siesta: k-grid:    0   0   1      0.000
 
diag: Algorithm                                     = D&C
diag: Parallel over k                               =   T
diag: Use parallel 2D distribution                  =   T
diag: Parallel block-size                           = 24
diag: Parallel distribution                         =     4 x     6
diag: Used triangular part                          = Lower
diag: Absolute tolerance                            =  0.100E-15
diag: Orthogonalization factor                      =  0.100E-05
diag: Memory factor                                 =  1.0000

superc: Internal auxiliary supercell:     3 x     1 x     1  =       3
superc: Number of atoms, orbitals, and projectors:    174   2070   2616
 
 
ts: **************************************************************
ts: Save H and S matrices                           =    T
ts: Save DM and EDM matrices                        =    F
ts: Fix Hartree potential                           =    F
ts: Only save the overlap matrix S                  =    F
ts: **************************************************************
 
************************ Begin: TS CHECKS AND WARNINGS ************************
************************ End: TS CHECKS AND WARNINGS **************************


                     ====================================
                        Begin CG opt. move =      0
                     ====================================

superc: Internal auxiliary supercell:     3 x     1 x     1  =       3
superc: Number of atoms, orbitals, and projectors:    174   2070   2616

outcell: Unit cell vectors (Ang):
        8.870000    0.000000    0.000000
        0.000000   50.000000    0.000000
        0.000000    0.000000   20.000000

outcell: Cell vector modules (Ang)   :    8.870000   50.000000   20.000000
outcell: Cell angles (23,13,12) (deg):     90.0000     90.0000     90.0000
outcell: Cell volume (Ang**3)        :   8870.0000
<dSpData1D:S at geom step 0
  <sparsity:sparsity for geom step 0
    nrows_g=690 nrows=48 sparsity=.0529 nnzs=25203, refcount: 7>
  <dData1D:(new from dSpData1D) n=25203, refcount: 1>
refcount: 1>
new_DM -- step:     1
Initializing Density Matrix...
 
Attempting to read DM from file... Failed...
DM filled with atomic data (user-defined):
<dSpData2D:DM initialized from atoms
  <sparsity:sparsity for geom step 0
    nrows_g=690 nrows=48 sparsity=.0529 nnzs=25203, refcount: 8>
  <dData2D:DM n=25203 m=2, refcount: 1>
refcount: 1>

initDM: Initial spin polarization (Qup-Qdown) =    0.000000

No. of atoms with KB's overlaping orbs in proc 0. Max # of overlaps:      50     217
New grid distribution:   1
           1       1:   54    1:   80    1:   21
           2       1:   54    1:   80   22:   42
           3       1:   54    1:   80   43:   63
           4       1:   54    1:   80   64:   84
           5       1:   54    1:   80   85:  105
           6       1:   54    1:   80  106:  125
           7       1:   54   81:  160    1:   21
           8       1:   54   81:  160   22:   42
           9       1:   54   81:  160   43:   63
          10       1:   54   81:  160   64:   84
          11       1:   54   81:  160   85:  105
          12       1:   54   81:  160  106:  125
          13       1:   54  161:  240    1:   21
          14       1:   54  161:  240   22:   42
          15       1:   54  161:  240   43:   63
          16       1:   54  161:  240   64:   84
          17       1:   54  161:  240   85:  105
          18       1:   54  161:  240  106:  125
          19       1:   54  241:  320    1:   21
          20       1:   54  241:  320   22:   42
          21       1:   54  241:  320   43:   63
          22       1:   54  241:  320   64:   84
          23       1:   54  241:  320   85:  105
          24       1:   54  241:  320  106:  125

InitMesh: MESH =   108 x   640 x   250 =    17280000
InitMesh: (bp) =    54 x   320 x   125 =     2160000
InitMesh: Mesh cutoff (required, used) =   400.000   409.734 Ry
ExtMesh (bp) on 0 =   118 x   148 x    89 =     1554296
New grid distribution:   2
           1       1:   54    1:   47    1:   63
           2       1:   54   95:  109    1:   59
           3       1:   54   64:   71    1:   63
           4       1:   54   48:   63   64:   67
           5       1:   54    1:   47   64:  125
           6       1:   54   48:   63   68:  125
           7       1:   54  110:  117    1:   63
           8       1:   54   48:   63   60:   63
           9       1:   54   48:   63    1:   59
          10       1:   54   72:   86    1:   59
          11       1:   54   87:   94    1:   63
          12       1:   54   72:   86   60:   63
          13       1:   54  118:  320    1:   58
          14       1:   54   72:   86   68:  125
          15       1:   54   87:   94   64:  125
          16       1:   54   95:  109   60:   63
          17       1:   54  118:  320   68:  125
          18       1:   54   95:  109   68:  125
          19       1:   54   64:   71   64:  125
          20       1:   54   95:  109   64:   67
          21       1:   54  118:  320   59:   63
          22       1:   54  118:  320   64:   67
          23       1:   54  110:  117   64:  125
          24       1:   54   72:   86   64:   67
New grid distribution:   3
           1       1:   54    1:   33    1:   63
           2       1:   54   66:   86    1:   55
           3       1:   54   55:   65    1:   63
           4       1:   54   34:   54   64:   71
           5       1:   54    1:   33   64:  125
           6       1:   54   66:   86   56:   63
           7       1:   54   98:  118    1:   55
           8       1:   54  119:  129    1:   63
           9       1:   54   34:   54    1:   55
          10       1:   54  130:  320   64:   70
          11       1:   54   87:   97    1:   63
          12       1:   54   34:   54   56:   63
          13       1:   54  130:  320    1:   56
          14       1:   54   66:   86   72:  125
          15       1:   54   87:   97   64:  125
          16       1:   54   98:  118   56:   63
          17       1:   54  130:  320   71:  125
          18       1:   54   98:  118   72:  125
          19       1:   54   55:   65   64:  125
          20       1:   54   98:  118   64:   71
          21       1:   54  130:  320   57:   63
          22       1:   54   34:   54   72:  125
          23       1:   54  119:  129   64:  125
          24       1:   54   66:   86   64:   71
Setting up quadratic distribution...
ExtMesh (bp) on 0 =   118 x   115 x   131 =     1777670
PhiOnMesh: Number of (b)points on node 0 =               159894
PhiOnMesh: nlist on node 0 =               618915

stepf: Fermi-Dirac step function

siesta: Program's energy decomposition (eV):
siesta: Ebs     =     -2414.347357
siesta: Eions   =     12929.823582
siesta: Ena     =      2707.165805
siesta: Ekin    =      5781.582062
siesta: Enl     =      -769.832438
siesta: Eso     =         0.000000
siesta: Eldau   =         0.000000
siesta: DEna    =      -232.812403
siesta: DUscf   =        22.870046
siesta: DUext   =         0.000000
siesta: Enegf   =         0.000000
siesta: Exc     =     -2462.080508
siesta: eta*DQ  =         0.000000
siesta: Emadel  =         0.000000
siesta: Emeta   =         0.000000
siesta: Emolmec =         0.000000
siesta: Ekinion =         0.000000
siesta: Eharris =     -7884.835847
siesta: Etot    =     -7882.931018
siesta: FreeEng =     -7882.941669

        iscf     Eharris(eV)        E_KS(eV)     FreeEng(eV)     dDmax    Ef(eV) dHmax(eV)
   scf:    1    -7884.835847    -7882.931018    -7882.941669  0.966880 -5.430765  5.760347
timer: Routine,Calls,Time,% = IterSCF        1      10.522  73.87
   scf:    2    -7885.340934    -7884.185289    -7884.195583  0.011627 -5.130861  4.274592
   scf:    3    -7887.956537    -7886.454752    -7886.465186  0.038967 -4.023049  1.901924
   scf:    4    -7886.743560    -7886.718964    -7886.729342  0.026426 -3.674915  1.495284
   scf:    5    -7886.879802    -7886.866893    -7886.876798  0.014256 -3.640783  0.632511
   scf:    6    -7886.819669    -7886.878214    -7886.887927  0.010907 -3.640953  0.807490
   scf:    7    -7886.889962    -7886.913799    -7886.923238  0.008707 -3.641857  0.334487
   scf:    8    -7886.911557    -7886.921508    -7886.930377  0.007029 -3.650455  0.320032
   scf:    9    -7886.901034    -7886.921433    -7886.930218  0.004997 -3.635048  0.312689
   scf:   10    -7886.928219    -7886.928752    -7886.937008  0.004301 -3.647322  0.091301
   scf:   11    -7886.930500    -7886.929732    -7886.937742  0.001552 -3.647519  0.045649
   scf:   12    -7886.932688    -7886.931121    -7886.938516  0.002645 -3.649849  0.032762
   scf:   13    -7886.931893    -7886.931521    -7886.938680  0.001068 -3.649267  0.029642
   scf:   14    -7886.932137    -7886.931828    -7886.938794  0.000745 -3.649388  0.016735
   scf:   15    -7886.933686    -7886.932703    -7886.939051  0.002112 -3.650015  0.013412
   scf:   16    -7886.933038    -7886.932869    -7886.939088  0.000418 -3.650050  0.009466
   scf:   17    -7886.933088    -7886.932978    -7886.939111  0.000263 -3.650070  0.008890
   scf:   18    -7886.934040    -7886.933488    -7886.939198  0.001235 -3.649936  0.005026
   scf:   19    -7886.934138    -7886.933804    -7886.939232  0.000773 -3.649895  0.002770
   scf:   20    -7886.933915    -7886.933859    -7886.939237  0.000121 -3.649912  0.002858
   scf:   21    -7886.934344    -7886.934095    -7886.939249  0.000544 -3.650015  0.002431
   scf:   22    -7886.934132    -7886.934113    -7886.939248  0.000048 -3.650030  0.001717
   scf:   23    -7886.934284    -7886.934197    -7886.939251  0.000174 -3.650061  0.001070
   scf:   24    -7886.934212    -7886.934205    -7886.939251  0.000026 -3.650063  0.001016
   scf:   25    -7886.934270    -7886.934237    -7886.939252  0.000070 -3.650060  0.000923
   scf:   26    -7886.934313    -7886.934275    -7886.939252  0.000074 -3.650033  0.000695
   scf:   27    -7886.934328    -7886.934302    -7886.939254  0.000088 -3.649984  0.000301
   scf:   28    -7886.934300    -7886.934301    -7886.939252  0.000013 -3.649975  0.000209
   scf:   29    -7886.934318    -7886.934309    -7886.939252  0.000028 -3.649962  0.000074
   scf:   30    -7886.934311    -7886.934310    -7886.939252  0.000005 -3.649959  0.000062

SCF Convergence by DM+H criterion
max |DM_out - DM_in|         :     0.0000047752
max |H_out - H_in|      (eV) :     0.0000616076
SCF cycle converged after 30 iterations

Using DM_out to compute the final energy and forces
No. of atoms with KB's overlaping orbs in proc 0. Max # of overlaps:      50     217

siesta: E_KS(eV) =            -7886.9343

siesta: E_KS - E_eggbox =     -7886.9343

siesta: Total spin polarization (Qup-Qdown) =    0.006443

siesta: Atomic forces (eV/Ang):
----------------------------------------
   Tot    0.019659   -0.011839   -0.000000
----------------------------------------
   Max    4.558849
   Res    0.525193    sqrt( Sum f_i^2 / 3N )
----------------------------------------
   Max    4.558849    constrained

Stress-tensor-Voigt (kbar):        1.30        0.25        0.01        0.09       -0.00        0.00
(Free)E + p*V (eV/cell)    -7889.8183
Target enthalpy (eV/cell)    -7886.9393
 
mulliken: Atomic and Orbital Populations:

mulliken: Spin UP 

Species: H.ca                
Atom  Qatom  Qorb
               1s      1s      1Ppy    1Ppz    1Ppx    
   1  0.624   0.409   0.159   0.025   0.017   0.014
   3  0.626   0.422   0.150   0.024   0.018   0.012
   9  0.625   0.421   0.149   0.024   0.018   0.013
  32  0.630   0.403   0.166   0.019   0.020   0.020
  33  0.622   0.408   0.157   0.018   0.019   0.020
  52  0.626   0.417   0.152   0.024   0.020   0.013
  56  0.625   0.417   0.151   0.024   0.021   0.012
  58  0.623   0.404   0.159   0.025   0.021   0.014

Species: C.ca2               
Atom  Qatom  Qorb
               2s      2s      2py     2pz     2px     2py     2pz     2px     
               2Pdxy   2Pdyz   2Pdz2   2Pdxz   2Pdx2-y2
   2  1.992   0.242   0.248   0.222   0.387   0.225   0.252   0.083   0.254
              0.023   0.015   0.002   0.015   0.024
   4  1.862   0.184   0.274   0.084   0.372   0.248   0.343   0.059   0.237
              0.016   0.005   0.001   0.016   0.022
   5  1.977   0.233   0.251   0.216   0.375   0.214   0.256   0.088   0.262
              0.024   0.015   0.002   0.015   0.025
   6  1.992   0.249   0.244   0.225   0.384   0.230   0.252   0.078   0.250
              0.024   0.016   0.002   0.015   0.024
   7  2.003   0.247   0.245   0.231   0.387   0.228   0.250   0.082   0.252
              0.023   0.015   0.002   0.016   0.024
   8  2.003   0.247   0.245   0.229   0.389   0.229   0.251   0.082   0.251
              0.023   0.016   0.002   0.016   0.024
  10  1.861   0.185   0.274   0.082   0.374   0.251   0.343   0.058   0.236
              0.017   0.005   0.001   0.016   0.021
  11  1.976   0.235   0.250   0.215   0.376   0.209   0.256   0.088   0.266
              0.025   0.014   0.002   0.015   0.024
  12  1.994   0.248   0.244   0.224   0.384   0.226   0.254   0.081   0.253
              0.024   0.015   0.002   0.016   0.024
  13  2.004   0.246   0.246   0.230   0.387   0.228   0.251   0.083   0.253
              0.024   0.015   0.002   0.016   0.024
  14  1.996   0.247   0.245   0.229   0.384   0.228   0.251   0.080   0.251
              0.023   0.016   0.002   0.016   0.024
  15  2.003   0.247   0.245   0.229   0.389   0.229   0.251   0.082   0.251
              0.023   0.015   0.002   0.015   0.024
  16  1.996   0.247   0.245   0.229   0.385   0.229   0.251   0.081   0.251
              0.023   0.016   0.002   0.016   0.024
  17  2.003   0.247   0.245   0.229   0.390   0.229   0.251   0.082   0.251
              0.023   0.016   0.002   0.016   0.024
  18  2.011   0.247   0.245   0.228   0.395   0.230   0.251   0.083   0.250
              0.023   0.016   0.002   0.016   0.024
  19  1.868   0.176   0.277   0.084   0.378   0.236   0.343   0.068   0.245
              0.018   0.004   0.001   0.016   0.021
  20  1.895   0.174   0.280   0.159   0.396   0.159   0.293   0.073   0.301
              0.024   0.009   0.001   0.010   0.015
  21  1.989   0.249   0.244   0.225   0.380   0.227   0.253   0.079   0.251
              0.024   0.015   0.002   0.016   0.024
  22  2.003   0.248   0.245   0.228   0.389   0.228   0.252   0.082   0.253
              0.023   0.015   0.002   0.015   0.024
  23  1.992   0.247   0.244   0.229   0.381   0.228   0.251   0.079   0.251
              0.023   0.016   0.002   0.016   0.024
  24  2.003   0.247   0.245   0.229   0.389   0.229   0.251   0.082   0.251
              0.023   0.016   0.002   0.015   0.024
  25  1.996   0.247   0.245   0.229   0.384   0.228   0.250   0.080   0.251
              0.023   0.016   0.002   0.016   0.024
  26  2.004   0.247   0.245   0.230   0.390   0.229   0.251   0.082   0.251
              0.023   0.016   0.002   0.016   0.024
  27  1.998   0.247   0.245   0.229   0.385   0.229   0.250   0.080   0.251
              0.023   0.016   0.002   0.016   0.024
  28  2.008   0.247   0.246   0.228   0.393   0.229   0.252   0.083   0.251
              0.024   0.015   0.002   0.016   0.024
  29  1.997   0.247   0.245   0.229   0.384   0.226   0.250   0.081   0.253
              0.023   0.016   0.002   0.017   0.024
  30  2.008   0.247   0.245   0.225   0.393   0.229   0.254   0.084   0.251
              0.024   0.015   0.002   0.015   0.024
  31  1.905   0.178   0.282   0.084   0.418   0.243   0.346   0.065   0.233
              0.017   0.004   0.001   0.014   0.021
  34  1.957   0.246   0.244   0.214   0.366   0.230   0.256   0.075   0.246
              0.024   0.015   0.002   0.016   0.024
  35  1.990   0.248   0.244   0.229   0.381   0.229   0.250   0.078   0.250
              0.023   0.016   0.002   0.016   0.024
  36  2.004   0.247   0.245   0.230   0.390   0.229   0.250   0.081   0.251
              0.023   0.016   0.002   0.015   0.024
  37  1.997   0.247   0.245   0.229   0.385   0.229   0.250   0.081   0.251
              0.023   0.016   0.002   0.016   0.024
  38  2.004   0.247   0.245   0.229   0.389   0.229   0.251   0.082   0.251
              0.023   0.016   0.002   0.016   0.024
  39  1.998   0.247   0.245   0.229   0.386   0.228   0.250   0.081   0.251
              0.023   0.016   0.002   0.016   0.024
  40  2.004   0.247   0.245   0.228   0.390   0.228   0.252   0.082   0.251
              0.023   0.016   0.002   0.016   0.024
  41  1.997   0.247   0.245   0.230   0.383   0.229   0.250   0.081   0.251
              0.023   0.016   0.002   0.016   0.024
  42  2.003   0.247   0.245   0.224   0.390   0.227   0.255   0.083   0.252
              0.024   0.015   0.002   0.015   0.024
  43  1.968   0.239   0.247   0.212   0.371   0.216   0.257   0.083   0.258
              0.024   0.015   0.002   0.020   0.025
  44  1.951   0.186   0.280   0.084   0.447   0.256   0.344   0.068   0.230
              0.017   0.004   0.001   0.015   0.021
  45  1.997   0.247   0.245   0.229   0.386   0.229   0.250   0.080   0.250
              0.023   0.016   0.002   0.016   0.024
  46  1.997   0.247   0.245   0.229   0.385   0.228   0.251   0.081   0.251
              0.023   0.016   0.002   0.016   0.024
  47  2.003   0.247   0.245   0.229   0.389   0.229   0.251   0.082   0.251
              0.023   0.016   0.002   0.016   0.024
  48  1.996   0.247   0.245   0.230   0.383   0.229   0.250   0.081   0.251
              0.023   0.016   0.002   0.016   0.024
  49  2.007   0.247   0.245   0.226   0.394   0.228   0.253   0.083   0.251
              0.024   0.015   0.002   0.015   0.024
  50  1.969   0.237   0.247   0.215   0.369   0.218   0.255   0.084   0.256
              0.024   0.016   0.002   0.021   0.024
  51  1.954   0.187   0.279   0.087   0.446   0.255   0.342   0.069   0.232
              0.016   0.004   0.001   0.015   0.021
  53  1.997   0.247   0.245   0.229   0.385   0.229   0.251   0.080   0.251
              0.023   0.016   0.002   0.017   0.024
  54  1.982   0.243   0.246   0.219   0.377   0.226   0.253   0.081   0.252
              0.023   0.017   0.002   0.019   0.024
  55  2.015   0.245   0.247   0.212   0.404   0.233   0.256   0.087   0.249
              0.024   0.015   0.002   0.016   0.024
  57  1.876   0.168   0.284   0.146   0.399   0.170   0.303   0.060   0.286
              0.023   0.010   0.001   0.009   0.014

mulliken: Qtot =      104.003

mulliken: Spin DOWN 

Species: H.ca                
Atom  Qatom  Qorb
               1s      1s      1Ppy    1Ppz    1Ppx    
   1  0.623   0.405   0.159   0.025   0.020   0.014
   3  0.624   0.418   0.149   0.024   0.021   0.012
   9  0.624   0.420   0.148   0.023   0.020   0.013
  32  0.630   0.403   0.166   0.019   0.021   0.020
  33  0.622   0.409   0.157   0.018   0.018   0.020
  52  0.627   0.419   0.152   0.024   0.019   0.014
  56  0.626   0.421   0.151   0.024   0.018   0.012
  58  0.624   0.408   0.160   0.025   0.017   0.014

Species: C.ca2               
Atom  Qatom  Qorb
               2s      2s      2py     2pz     2px     2py     2pz     2px     
               2Pdxy   2Pdyz   2Pdz2   2Pdxz   2Pdx2-y2
   2  1.982   0.243   0.246   0.222   0.378   0.224   0.251   0.081   0.252
              0.023   0.016   0.002   0.019   0.024
   4  1.952   0.184   0.278   0.086   0.437   0.250   0.345   0.074   0.238
              0.016   0.005   0.001   0.016   0.022
   5  1.968   0.233   0.249   0.215   0.368   0.213   0.255   0.086   0.261
              0.024   0.016   0.002   0.021   0.025
   6  2.007   0.249   0.245   0.226   0.395   0.230   0.252   0.081   0.250
              0.024   0.015   0.002   0.015   0.024
   7  1.997   0.247   0.245   0.231   0.383   0.228   0.250   0.081   0.252
              0.023   0.016   0.002   0.016   0.024
   8  1.997   0.247   0.245   0.229   0.385   0.229   0.251   0.081   0.251
              0.023   0.016   0.002   0.016   0.024
  10  1.948   0.184   0.279   0.083   0.437   0.252   0.345   0.073   0.237
              0.017   0.004   0.001   0.016   0.021
  11  1.967   0.235   0.248   0.214   0.369   0.208   0.255   0.086   0.265
              0.025   0.015   0.002   0.020   0.024
  12  2.002   0.248   0.245   0.224   0.390   0.227   0.254   0.082   0.253
              0.024   0.015   0.002   0.015   0.024
  13  1.997   0.247   0.245   0.229   0.382   0.228   0.251   0.082   0.252
              0.024   0.016   0.002   0.016   0.024
  14  2.005   0.247   0.245   0.229   0.390   0.229   0.251   0.082   0.251
              0.023   0.016   0.002   0.016   0.024
  15  1.998   0.247   0.245   0.229   0.386   0.228   0.250   0.081   0.251
              0.023   0.016   0.002   0.016   0.024
  16  2.004   0.247   0.245   0.229   0.390   0.229   0.251   0.082   0.251
              0.023   0.016   0.002   0.016   0.024
  17  1.997   0.247   0.245   0.229   0.386   0.228   0.251   0.081   0.251
              0.023   0.016   0.002   0.016   0.024
  18  1.991   0.248   0.244   0.228   0.381   0.229   0.251   0.079   0.250
              0.023   0.016   0.002   0.016   0.024
  19  1.908   0.175   0.280   0.085   0.407   0.237   0.343   0.075   0.245
              0.018   0.004   0.001   0.016   0.021
  20  1.884   0.174   0.279   0.158   0.388   0.158   0.293   0.072   0.300
              0.024   0.011   0.001   0.011   0.015
  21  2.008   0.249   0.245   0.225   0.394   0.228   0.254   0.083   0.251
              0.024   0.014   0.002   0.015   0.024
  22  1.997   0.248   0.244   0.227   0.384   0.228   0.251   0.080   0.253
              0.023   0.017   0.002   0.017   0.024
  23  2.008   0.247   0.246   0.229   0.393   0.228   0.252   0.083   0.252
              0.023   0.016   0.002   0.016   0.024
  24  1.998   0.247   0.245   0.229   0.386   0.229   0.250   0.080   0.251
              0.023   0.016   0.002   0.016   0.024
  25  2.004   0.247   0.245   0.229   0.390   0.228   0.251   0.082   0.251
              0.023   0.016   0.002   0.016   0.024
  26  1.997   0.247   0.245   0.229   0.385   0.228   0.250   0.080   0.251
              0.023   0.016   0.002   0.016   0.024
  27  2.003   0.247   0.245   0.229   0.389   0.229   0.251   0.082   0.251
              0.023   0.016   0.002   0.015   0.024
  28  1.992   0.247   0.245   0.228   0.382   0.228   0.251   0.079   0.251
              0.024   0.016   0.002   0.016   0.024
  29  2.003   0.247   0.246   0.229   0.389   0.227   0.251   0.082   0.254
              0.023   0.015   0.002   0.015   0.024
  30  1.989   0.248   0.244   0.224   0.380   0.229   0.254   0.080   0.250
              0.024   0.015   0.002   0.016   0.024
  31  1.861   0.179   0.279   0.083   0.386   0.242   0.345   0.058   0.232
              0.017   0.004   0.001   0.015   0.021
  34  2.015   0.245   0.247   0.215   0.407   0.230   0.257   0.087   0.247
              0.024   0.015   0.002   0.016   0.024
  35  2.011   0.248   0.245   0.229   0.396   0.230   0.251   0.083   0.250
              0.023   0.016   0.002   0.016   0.024
  36  1.998   0.247   0.245   0.230   0.385   0.228   0.250   0.080   0.251
              0.023   0.016   0.002   0.017   0.024
  37  2.003   0.247   0.245   0.229   0.390   0.229   0.251   0.082   0.251
              0.023   0.016   0.002   0.016   0.024
  38  1.997   0.247   0.245   0.229   0.385   0.228   0.251   0.081   0.251
              0.023   0.016   0.002   0.016   0.024
  39  2.002   0.247   0.245   0.229   0.389   0.229   0.251   0.082   0.251
              0.023   0.016   0.002   0.015   0.024
  40  1.996   0.247   0.245   0.228   0.384   0.228   0.251   0.080   0.251
              0.023   0.016   0.002   0.016   0.024
  41  2.004   0.247   0.245   0.230   0.388   0.229   0.251   0.082   0.252
              0.023   0.015   0.002   0.016   0.024
  42  1.995   0.247   0.245   0.223   0.384   0.227   0.255   0.081   0.252
              0.024   0.015   0.002   0.015   0.024
  43  1.978   0.239   0.249   0.212   0.379   0.217   0.257   0.086   0.260
              0.024   0.015   0.002   0.015   0.025
  44  1.852   0.187   0.274   0.082   0.375   0.254   0.342   0.052   0.229
              0.017   0.004   0.001   0.015   0.021
  45  2.003   0.247   0.245   0.229   0.390   0.229   0.251   0.081   0.251
              0.023   0.016   0.002   0.015   0.024
  46  2.003   0.247   0.245   0.229   0.389   0.229   0.251   0.082   0.251
              0.023   0.016   0.002   0.016   0.024
  47  1.998   0.247   0.245   0.229   0.386   0.229   0.251   0.081   0.251
              0.023   0.016   0.002   0.016   0.024
  48  2.003   0.247   0.245   0.230   0.388   0.229   0.250   0.082   0.251
              0.023   0.016   0.002   0.016   0.024
  49  1.992   0.247   0.244   0.225   0.383   0.228   0.253   0.080   0.251
              0.024   0.016   0.002   0.016   0.024
  50  1.979   0.237   0.249   0.215   0.378   0.219   0.256   0.086   0.258
              0.024   0.015   0.002   0.014   0.024
  51  1.856   0.188   0.274   0.085   0.373   0.253   0.341   0.054   0.230
              0.016   0.005   0.001   0.015   0.021
  53  2.004   0.247   0.245   0.229   0.390   0.229   0.251   0.082   0.251
              0.023   0.016   0.002   0.015   0.024
  54  1.993   0.243   0.248   0.219   0.386   0.227   0.254   0.083   0.254
              0.023   0.015   0.002   0.015   0.024
  55  1.960   0.246   0.244   0.212   0.365   0.233   0.255   0.076   0.248
              0.024   0.016   0.002   0.016   0.024
  57  1.890   0.168   0.285   0.147   0.409   0.171   0.304   0.062   0.287
              0.023   0.009   0.001   0.008   0.014

mulliken: Qtot =      103.997

                     ====================================
                        Begin CG opt. move =      1
                     ====================================

superc: Internal auxiliary supercell:     3 x     1 x     1  =       3
superc: Number of atoms, orbitals, and projectors:    174   2070   2616

outcell: Unit cell vectors (Ang):
        8.870000    0.000000    0.000000
        0.000000   50.000000    0.000000
        0.000000    0.000000   20.000000

outcell: Cell vector modules (Ang)   :    8.870000   50.000000   20.000000
outcell: Cell angles (23,13,12) (deg):     90.0000     90.0000     90.0000
outcell: Cell volume (Ang**3)        :   8870.0000
<dSpData1D:S at geom step 1
  <sparsity:sparsity for geom step 1
    nrows_g=690 nrows=48 sparsity=.0529 nnzs=25203, refcount: 7>
  <dData1D:(new from dSpData1D) n=25203, refcount: 1>
refcount: 1>
new_DM -- step:     2
Re-using DM from previous geometries...
Number of DMs in history: 1
 DM extrapolation coefficients: 
1   1.00000
New DM after history re-use:
<dSpData2D:SpM extrapolated using coords
  <sparsity:sparsity for geom step 1
    nrows_g=690 nrows=48 sparsity=.0529 nnzs=25203, refcount: 8>
  <dData2D:(temp array for extrapolation) n=25203 m=2, refcount: 1>
refcount: 1>
No. of atoms with KB's overlaping orbs in proc 0. Max # of overlaps:      50     217
New grid distribution:   1
           1       1:   54    1:   80    1:   21
           2       1:   54    1:   80   22:   42
           3       1:   54    1:   80   43:   63
           4       1:   54    1:   80   64:   84
           5       1:   54    1:   80   85:  105
           6       1:   54    1:   80  106:  125
           7       1:   54   81:  160    1:   21
           8       1:   54   81:  160   22:   42
           9       1:   54   81:  160   43:   63
          10       1:   54   81:  160   64:   84
          11       1:   54   81:  160   85:  105
          12       1:   54   81:  160  106:  125
          13       1:   54  161:  240    1:   21
          14       1:   54  161:  240   22:   42
          15       1:   54  161:  240   43:   63
          16       1:   54  161:  240   64:   84
          17       1:   54  161:  240   85:  105
          18       1:   54  161:  240  106:  125
          19       1:   54  241:  320    1:   21
          20       1:   54  241:  320   22:   42
          21       1:   54  241:  320   43:   63
          22       1:   54  241:  320   64:   84
          23       1:   54  241:  320   85:  105
          24       1:   54  241:  320  106:  125

InitMesh: MESH =   108 x   640 x   250 =    17280000
InitMesh: (bp) =    54 x   320 x   125 =     2160000
InitMesh: Mesh cutoff (required, used) =   400.000   409.734 Ry
ExtMesh (bp) on 0 =   118 x   148 x    89 =     1554296
New grid distribution:   2
           1       1:   54    1:   47    1:   63
           2       1:   54   95:  109    1:   59
           3       1:   54   64:   71    1:   63
           4       1:   54   48:   63   64:   67
           5       1:   54    1:   47   64:  125
           6       1:   54   48:   63   68:  125
           7       1:   54  110:  117    1:   63
           8       1:   54   48:   63   60:   63
           9       1:   54   48:   63    1:   59
          10       1:   54   72:   86    1:   59
          11       1:   54   87:   94    1:   63
          12       1:   54   72:   86   60:   63
          13       1:   54  118:  320    1:   58
          14       1:   54   72:   86   68:  125
          15       1:   54   87:   94   64:  125
          16       1:   54   95:  109   60:   63
          17       1:   54  118:  320   68:  125
          18       1:   54   95:  109   68:  125
          19       1:   54   64:   71   64:  125
          20       1:   54   95:  109   64:   67
          21       1:   54  118:  320   59:   63
          22       1:   54  118:  320   64:   67
          23       1:   54  110:  117   64:  125
          24       1:   54   72:   86   64:   67
New grid distribution:   3
           1       1:   54    1:   33    1:   63
           2       1:   54   66:   86    1:   55
           3       1:   54   55:   65    1:   63
           4       1:   54   34:   54   64:   71
           5       1:   54    1:   33   64:  125
           6       1:   54   66:   86   56:   63
           7       1:   54   98:  118    1:   55
           8       1:   54  119:  129    1:   63
           9       1:   54   34:   54    1:   55
          10       1:   54  130:  320   64:   70
          11       1:   54   87:   97    1:   63
          12       1:   54   34:   54   56:   63
          13       1:   54  130:  320    1:   56
          14       1:   54   66:   86   72:  125
          15       1:   54   87:   97   64:  125
          16       1:   54   98:  118   56:   63
          17       1:   54  130:  320   71:  125
          18       1:   54   98:  118   72:  125
          19       1:   54   55:   65   64:  125
          20       1:   54   98:  118   64:   71
          21       1:   54  130:  320   57:   63
          22       1:   54   34:   54   72:  125
          23       1:   54  119:  129   64:  125
          24       1:   54   66:   86   64:   71
Setting up quadratic distribution...
ExtMesh (bp) on 0 =   118 x   115 x   131 =     1777670
PhiOnMesh: Number of (b)points on node 0 =               159894
PhiOnMesh: nlist on node 0 =               618926

        iscf     Eharris(eV)        E_KS(eV)     FreeEng(eV)     dDmax    Ef(eV) dHmax(eV)
   scf:    1    -7884.643291    -7886.287749    -7886.293490  0.048358 -3.618828  3.506743
   scf:    2    -7749.078490    -7842.649287    -7842.660410  0.124239 -3.661200 23.107359
   scf:    3    -7901.584529    -7885.942653    -7885.945350  0.072318 -3.642658  3.740816
   scf:    4    -7884.963366    -7885.472845    -7885.473473  0.007210 -3.641882  4.472706
   scf:    5    -7878.241552    -7885.171259    -7885.171466  0.071407 -3.650697  4.843901
   scf:    6    -7882.174561    -7886.209971    -7886.213995  0.064940 -3.665866  3.164314
   scf:    7    -7887.248075    -7887.051029    -7887.059854  0.031861 -3.674276  0.366997
   scf:    8    -7887.040294    -7887.045936    -7887.054707  0.000765 -3.676423  0.438250
   scf:    9    -7887.062187    -7887.062661    -7887.071344  0.004205 -3.677147  0.025979
   scf:   10    -7887.055929    -7887.060594    -7887.069188  0.001632 -3.677185  0.166120
   scf:   11    -7887.060825    -7887.062809    -7887.071108  0.002465 -3.677343  0.071248
   scf:   12    -7887.062734    -7887.062779    -7887.070962  0.000343 -3.677349  0.084235
   scf:   13    -7887.064036    -7887.063618    -7887.071545  0.001133 -3.677410  0.013088
   scf:   14    -7887.063887    -7887.063756    -7887.071568  0.000326 -3.677478  0.009494
   scf:   15    -7887.064622    -7887.064180    -7887.071625  0.000775 -3.677624  0.005772
   scf:   16    -7887.064977    -7887.064569    -7887.071668  0.000699 -3.677612  0.005129
   scf:   17    -7887.065017    -7887.064790    -7887.071689  0.000417 -3.677586  0.002877
   scf:   18    -7887.065336    -7887.065057    -7887.071709  0.000497 -3.677493  0.002327
   scf:   19    -7887.065319    -7887.065187    -7887.071718  0.000247 -3.677405  0.001730
   scf:   20    -7887.065549    -7887.065365    -7887.071727  0.000350 -3.677245  0.001768
   scf:   21    -7887.065558    -7887.065461    -7887.071731  0.000183 -3.677189  0.000969
   scf:   22    -7887.065703    -7887.065580    -7887.071733  0.000228 -3.677143  0.000488
   scf:   23    -7887.065635    -7887.065607    -7887.071733  0.000053 -3.677142  0.000324
   scf:   24    -7887.065663    -7887.065635    -7887.071733  0.000051 -3.677162  0.000225
   scf:   25    -7887.065647    -7887.065641    -7887.071733  0.000014 -3.677170  0.000207
   scf:   26    -7887.065667    -7887.065654    -7887.071733  0.000037 -3.677181  0.000167
   scf:   27    -7887.065655    -7887.065655    -7887.071733  0.000003 -3.677184  0.000120

SCF Convergence by DM+H criterion
max |DM_out - DM_in|         :     0.0000032839
max |H_out - H_in|      (eV) :     0.0001197190
SCF cycle converged after 27 iterations

Using DM_out to compute the final energy and forces
No. of atoms with KB's overlaping orbs in proc 0. Max # of overlaps:      50     217

siesta: E_KS(eV) =            -7887.0657

siesta: Total spin polarization (Qup-Qdown) =   -0.002618

siesta: Atomic forces (eV/Ang):
----------------------------------------
   Tot    0.016986   -0.017560    0.000000
----------------------------------------
   Max    3.026241
   Res    0.382693    sqrt( Sum f_i^2 / 3N )
----------------------------------------
   Max    3.026241    constrained

Stress-tensor-Voigt (kbar):        0.41        0.64        0.01       -0.22       -0.00       -0.00
(Free)E + p*V (eV/cell)    -7889.0147
Target enthalpy (eV/cell)    -7887.0717
 
mulliken: Atomic and Orbital Populations:

mulliken: Spin UP 

Species: H.ca                
Atom  Qatom  Qorb
               1s      1s      1Ppy    1Ppz    1Ppx    
   1  0.624   0.408   0.159   0.025   0.018   0.014
   3  0.625   0.422   0.150   0.024   0.018   0.012
   9  0.624   0.421   0.149   0.024   0.018   0.013
  32  0.616   0.410   0.151   0.018   0.017   0.020
  33  0.622   0.408   0.157   0.018   0.019   0.020
  52  0.620   0.423   0.143   0.023   0.018   0.013
  56  0.622   0.421   0.146   0.024   0.020   0.012
  58  0.621   0.406   0.156   0.025   0.020   0.014

Species: C.ca2               
Atom  Qatom  Qorb
               2s      2s      2py     2pz     2px     2py     2pz     2px     
               2Pdxy   2Pdyz   2Pdz2   2Pdxz   2Pdx2-y2
   2  1.991   0.242   0.248   0.222   0.386   0.225   0.252   0.083   0.254
              0.023   0.015   0.002   0.015   0.024
   4  1.866   0.184   0.274   0.084   0.374   0.249   0.343   0.060   0.237
              0.016   0.005   0.001   0.016   0.022
   5  1.976   0.233   0.250   0.216   0.375   0.214   0.256   0.088   0.262
              0.024   0.015   0.002   0.015   0.025
   6  1.993   0.249   0.244   0.225   0.385   0.230   0.252   0.079   0.250
              0.024   0.016   0.002   0.015   0.024
   7  2.003   0.247   0.245   0.231   0.387   0.228   0.250   0.082   0.252
              0.023   0.015   0.002   0.016   0.024
   8  2.003   0.247   0.245   0.229   0.389   0.229   0.251   0.082   0.251
              0.023   0.016   0.002   0.016   0.024
  10  1.865   0.185   0.274   0.082   0.377   0.251   0.343   0.059   0.236
              0.017   0.005   0.001   0.016   0.021
  11  1.975   0.235   0.250   0.215   0.376   0.209   0.256   0.088   0.266
              0.025   0.014   0.002   0.016   0.024
  12  1.995   0.248   0.244   0.224   0.385   0.226   0.254   0.081   0.253
              0.024   0.015   0.002   0.016   0.024
  13  2.004   0.246   0.246   0.230   0.386   0.228   0.251   0.083   0.253
              0.024   0.015   0.002   0.016   0.024
  14  1.996   0.247   0.245   0.229   0.384   0.228   0.251   0.080   0.251
              0.023   0.016   0.002   0.016   0.024
  15  2.002   0.247   0.245   0.230   0.389   0.228   0.251   0.082   0.251
              0.023   0.016   0.002   0.015   0.024
  16  1.997   0.247   0.245   0.229   0.385   0.229   0.251   0.081   0.251
              0.023   0.016   0.002   0.016   0.024
  17  2.003   0.247   0.245   0.229   0.389   0.229   0.250   0.082   0.251
              0.023   0.016   0.002   0.016   0.024
  18  2.010   0.248   0.245   0.229   0.395   0.230   0.251   0.083   0.250
              0.023   0.016   0.002   0.016   0.024
  19  1.870   0.176   0.278   0.085   0.379   0.236   0.343   0.069   0.245
              0.018   0.004   0.001   0.016   0.021
  20  1.894   0.174   0.280   0.159   0.396   0.159   0.293   0.073   0.301
              0.024   0.009   0.001   0.010   0.015
  21  1.989   0.249   0.244   0.225   0.381   0.227   0.253   0.080   0.251
              0.024   0.015   0.002   0.016   0.024
  22  2.003   0.248   0.245   0.228   0.389   0.228   0.252   0.082   0.253
              0.023   0.015   0.002   0.015   0.024
  23  1.993   0.247   0.245   0.229   0.382   0.228   0.251   0.080   0.251
              0.023   0.016   0.002   0.016   0.024
  24  2.003   0.247   0.245   0.229   0.389   0.229   0.251   0.082   0.251
              0.023   0.016   0.002   0.015   0.024
  25  1.997   0.247   0.245   0.229   0.385   0.228   0.250   0.081   0.251
              0.023   0.016   0.002   0.016   0.024
  26  2.004   0.247   0.245   0.230   0.390   0.229   0.250   0.082   0.251
              0.023   0.016   0.002   0.016   0.024
  27  1.998   0.247   0.245   0.229   0.385   0.228   0.251   0.081   0.251
              0.023   0.016   0.002   0.016   0.024
  28  2.008   0.247   0.245   0.229   0.393   0.228   0.251   0.083   0.251
              0.023   0.016   0.002   0.016   0.024
  29  1.998   0.248   0.244   0.227   0.384   0.229   0.250   0.080   0.253
              0.023   0.016   0.002   0.017   0.024
  30  2.008   0.251   0.244   0.227   0.395   0.229   0.251   0.081   0.251
              0.024   0.014   0.002   0.015   0.023
  31  1.908   0.181   0.276   0.097   0.401   0.231   0.330   0.079   0.252
              0.019   0.004   0.001   0.016   0.021
  34  1.960   0.246   0.244   0.214   0.367   0.230   0.256   0.076   0.246
              0.024   0.015   0.002   0.016   0.024
  35  1.991   0.248   0.244   0.229   0.382   0.229   0.250   0.078   0.250
              0.023   0.016   0.002   0.016   0.024
  36  2.003   0.247   0.245   0.230   0.390   0.229   0.250   0.081   0.251
              0.023   0.016   0.002   0.016   0.024
  37  1.998   0.247   0.245   0.229   0.386   0.229   0.250   0.081   0.251
              0.023   0.016   0.002   0.016   0.024
  38  2.003   0.247   0.245   0.229   0.389   0.229   0.251   0.082   0.251
              0.023   0.016   0.002   0.016   0.024
  39  1.998   0.247   0.245   0.229   0.386   0.229   0.250   0.081   0.251
              0.023   0.016   0.002   0.016   0.024
  40  2.004   0.247   0.245   0.229   0.390   0.228   0.251   0.082   0.251
              0.023   0.016   0.002   0.016   0.024
  41  1.998   0.247   0.245   0.230   0.383   0.228   0.250   0.082   0.253
              0.023   0.016   0.002   0.016   0.024
  42  2.001   0.250   0.244   0.226   0.391   0.228   0.251   0.081   0.252
              0.024   0.014   0.002   0.015   0.024
  43  1.967   0.239   0.247   0.222   0.373   0.207   0.248   0.083   0.265
              0.024   0.014   0.002   0.020   0.024
  44  1.945   0.188   0.276   0.090   0.432   0.250   0.338   0.073   0.240
              0.017   0.004   0.001   0.016   0.021
  45  1.998   0.247   0.245   0.229   0.386   0.229   0.250   0.080   0.250
              0.023   0.016   0.002   0.016   0.024
  46  1.997   0.247   0.245   0.229   0.385   0.228   0.251   0.081   0.251
              0.023   0.016   0.002   0.016   0.024
  47  2.002   0.247   0.245   0.229   0.389   0.229   0.251   0.082   0.251
              0.023   0.016   0.002   0.016   0.024
  48  1.998   0.247   0.245   0.231   0.383   0.228   0.250   0.082   0.252
              0.023   0.016   0.002   0.016   0.024
  49  2.006   0.248   0.245   0.226   0.394   0.230   0.251   0.082   0.251
              0.023   0.015   0.002   0.015   0.024
  50  1.968   0.235   0.248   0.219   0.370   0.213   0.251   0.085   0.261
              0.024   0.015   0.002   0.020   0.025
  51  1.948   0.187   0.276   0.090   0.431   0.250   0.340   0.074   0.239
              0.016   0.005   0.001   0.016   0.022
  53  1.998   0.247   0.245   0.230   0.385   0.228   0.250   0.081   0.251
              0.023   0.016   0.002   0.017   0.024
  54  1.983   0.242   0.246   0.220   0.378   0.226   0.253   0.082   0.251
              0.023   0.016   0.002   0.019   0.025
  55  2.014   0.246   0.247   0.217   0.408   0.229   0.255   0.085   0.246
              0.024   0.015   0.002   0.016   0.023
  57  1.892   0.182   0.273   0.159   0.382   0.167   0.290   0.079   0.296
              0.024   0.011   0.001   0.012   0.015

mulliken: Qtot =      103.999

mulliken: Spin DOWN 

Species: H.ca                
Atom  Qatom  Qorb
               1s      1s      1Ppy    1Ppz    1Ppx    
   1  0.623   0.405   0.159   0.025   0.020   0.014
   3  0.624   0.418   0.149   0.024   0.020   0.012
   9  0.624   0.420   0.148   0.023   0.019   0.013
  32  0.616   0.410   0.151   0.018   0.017   0.020
  33  0.622   0.409   0.157   0.018   0.018   0.020
  52  0.621   0.425   0.143   0.023   0.017   0.013
  56  0.623   0.424   0.146   0.024   0.017   0.012
  58  0.622   0.409   0.157   0.025   0.017   0.014

Species: C.ca2               
Atom  Qatom  Qorb
               2s      2s      2py     2pz     2px     2py     2pz     2px     
               2Pdxy   2Pdyz   2Pdz2   2Pdxz   2Pdx2-y2
   2  1.983   0.243   0.246   0.222   0.379   0.224   0.251   0.081   0.252
              0.023   0.016   0.002   0.019   0.024
   4  1.947   0.184   0.278   0.086   0.434   0.250   0.345   0.073   0.238
              0.016   0.005   0.001   0.016   0.022
   5  1.968   0.233   0.249   0.215   0.368   0.213   0.255   0.086   0.261
              0.024   0.016   0.002   0.021   0.025
   6  2.006   0.249   0.245   0.226   0.394   0.230   0.252   0.081   0.250
              0.024   0.015   0.002   0.015   0.024
   7  1.997   0.247   0.245   0.231   0.383   0.228   0.250   0.081   0.252
              0.023   0.016   0.002   0.016   0.024
   8  1.997   0.247   0.245   0.229   0.385   0.228   0.251   0.081   0.251
              0.023   0.016   0.002   0.016   0.024
  10  1.944   0.184   0.278   0.083   0.434   0.252   0.345   0.072   0.237
              0.017   0.004   0.001   0.016   0.021
  11  1.967   0.235   0.248   0.215   0.369   0.208   0.255   0.086   0.265
              0.025   0.015   0.002   0.020   0.024
  12  2.001   0.248   0.245   0.224   0.389   0.227   0.254   0.082   0.253
              0.024   0.015   0.002   0.015   0.024
  13  1.997   0.247   0.245   0.229   0.382   0.228   0.251   0.082   0.252
              0.024   0.016   0.002   0.016   0.024
  14  2.004   0.247   0.245   0.229   0.390   0.229   0.251   0.082   0.251
              0.023   0.016   0.002   0.016   0.024
  15  1.998   0.247   0.245   0.229   0.386   0.228   0.250   0.081   0.251
              0.023   0.016   0.002   0.016   0.024
  16  2.003   0.247   0.245   0.229   0.389   0.229   0.251   0.082   0.251
              0.023   0.016   0.002   0.016   0.024
  17  1.998   0.247   0.245   0.229   0.386   0.228   0.250   0.081   0.251
              0.023   0.016   0.002   0.016   0.024
  18  1.991   0.248   0.244   0.229   0.382   0.229   0.250   0.079   0.250
              0.023   0.016   0.002   0.016   0.024
  19  1.906   0.175   0.280   0.085   0.405   0.237   0.343   0.075   0.245
              0.018   0.004   0.001   0.016   0.021
  20  1.885   0.174   0.279   0.158   0.388   0.158   0.293   0.072   0.300
              0.024   0.011   0.001   0.011   0.015
  21  2.007   0.249   0.245   0.225   0.394   0.228   0.253   0.083   0.251
              0.024   0.014   0.002   0.015   0.024
  22  1.997   0.248   0.244   0.227   0.384   0.228   0.251   0.080   0.253
              0.023   0.016   0.002   0.017   0.024
  23  2.007   0.247   0.246   0.229   0.392   0.228   0.252   0.083   0.252
              0.023   0.016   0.002   0.016   0.024
  24  1.998   0.247   0.245   0.229   0.386   0.229   0.250   0.081   0.251
              0.023   0.016   0.002   0.016   0.024
  25  2.004   0.247   0.245   0.229   0.390   0.228   0.251   0.082   0.252
              0.023   0.016   0.002   0.016   0.024
  26  1.997   0.247   0.245   0.229   0.385   0.228   0.250   0.080   0.251
              0.023   0.016   0.002   0.016   0.024
  27  2.003   0.247   0.245   0.229   0.389   0.229   0.251   0.082   0.252
              0.023   0.016   0.002   0.015   0.024
  28  1.992   0.248   0.244   0.229   0.382   0.228   0.251   0.079   0.251
              0.023   0.016   0.002   0.016   0.024
  29  2.004   0.248   0.245   0.228   0.389   0.229   0.251   0.081   0.253
              0.023   0.015   0.002   0.015   0.024
  30  1.989   0.251   0.243   0.227   0.382   0.228   0.251   0.078   0.250
              0.024   0.015   0.002   0.016   0.023
  31  1.874   0.181   0.274   0.097   0.376   0.231   0.329   0.073   0.252
              0.019   0.004   0.001   0.016   0.021
  34  2.012   0.245   0.247   0.215   0.405   0.230   0.257   0.086   0.247
              0.024   0.015   0.002   0.016   0.024
  35  2.010   0.248   0.245   0.229   0.395   0.230   0.251   0.082   0.250
              0.023   0.016   0.002   0.016   0.024
  36  1.998   0.247   0.245   0.230   0.386   0.228   0.250   0.080   0.251
              0.023   0.016   0.002   0.017   0.024
  37  2.003   0.247   0.245   0.229   0.389   0.229   0.250   0.082   0.251
              0.023   0.016   0.002   0.016   0.024
  38  1.997   0.247   0.245   0.229   0.385   0.228   0.251   0.081   0.251
              0.023   0.016   0.002   0.016   0.024
  39  2.002   0.247   0.245   0.229   0.389   0.229   0.251   0.082   0.251
              0.023   0.015   0.002   0.015   0.024
  40  1.996   0.247   0.245   0.229   0.384   0.228   0.251   0.080   0.251
              0.023   0.016   0.002   0.016   0.024
  41  2.004   0.247   0.245   0.231   0.387   0.228   0.250   0.083   0.253
              0.024   0.015   0.002   0.016   0.024
  42  1.995   0.250   0.244   0.225   0.386   0.228   0.251   0.079   0.252
              0.024   0.015   0.002   0.016   0.024
  43  1.975   0.239   0.249   0.222   0.380   0.207   0.249   0.084   0.266
              0.024   0.014   0.002   0.016   0.024
  44  1.871   0.188   0.272   0.089   0.378   0.249   0.336   0.060   0.238
              0.017   0.004   0.001   0.016   0.021
  45  2.002   0.247   0.245   0.229   0.389   0.229   0.251   0.081   0.251
              0.023   0.016   0.002   0.015   0.024
  46  2.003   0.247   0.245   0.229   0.389   0.229   0.251   0.082   0.251
              0.023   0.016   0.002   0.016   0.024
  47  1.998   0.247   0.245   0.229   0.386   0.229   0.251   0.081   0.251
              0.023   0.016   0.002   0.016   0.024
  48  2.003   0.247   0.245   0.231   0.387   0.228   0.250   0.083   0.252
              0.023   0.015   0.002   0.016   0.024
  49  1.993   0.249   0.244   0.225   0.385   0.229   0.251   0.079   0.251
              0.023   0.016   0.002   0.016   0.024
  50  1.976   0.235   0.250   0.219   0.377   0.214   0.252   0.087   0.263
              0.024   0.014   0.002   0.015   0.025
  51  1.870   0.188   0.272   0.089   0.374   0.249   0.339   0.062   0.238
              0.016   0.005   0.001   0.016   0.022
  53  2.004   0.247   0.245   0.230   0.389   0.228   0.251   0.082   0.252
              0.023   0.016   0.002   0.016   0.024
  54  1.992   0.242   0.248   0.221   0.385   0.227   0.254   0.084   0.253
              0.023   0.015   0.002   0.015   0.025
  55  1.958   0.247   0.243   0.217   0.368   0.229   0.254   0.074   0.245
              0.023   0.015   0.002   0.016   0.023
  57  1.900   0.182   0.274   0.160   0.389   0.167   0.291   0.080   0.297
              0.024   0.010   0.001   0.010   0.015

mulliken: Qtot =      104.001

                     ====================================
                        Begin CG opt. move =      2
                     ====================================

superc: Internal auxiliary supercell:     3 x     1 x     1  =       3
superc: Number of atoms, orbitals, and projectors:    174   2070   2616

outcell: Unit cell vectors (Ang):
        8.870000    0.000000    0.000000
        0.000000   50.000000    0.000000
        0.000000    0.000000   20.000000

outcell: Cell vector modules (Ang)   :    8.870000   50.000000   20.000000
outcell: Cell angles (23,13,12) (deg):     90.0000     90.0000     90.0000
outcell: Cell volume (Ang**3)        :   8870.0000
<dSpData1D:S at geom step 2
  <sparsity:sparsity for geom step 2
    nrows_g=690 nrows=48 sparsity=.0529 nnzs=25203, refcount: 7>
  <dData1D:(new from dSpData1D) n=25203, refcount: 1>
refcount: 1>
new_DM -- step:     3
Re-using DM from previous geometries...
Number of DMs in history: 1
 DM extrapolation coefficients: 
1   1.00000
New DM after history re-use:
<dSpData2D:SpM extrapolated using coords
  <sparsity:sparsity for geom step 2
    nrows_g=690 nrows=48 sparsity=.0529 nnzs=25203, refcount: 8>
  <dData2D:(temp array for extrapolation) n=25203 m=2, refcount: 1>
refcount: 1>
No. of atoms with KB's overlaping orbs in proc 0. Max # of overlaps:      50     217
New grid distribution:   1
           1       1:   54    1:   80    1:   21
           2       1:   54    1:   80   22:   42
           3       1:   54    1:   80   43:   63
           4       1:   54    1:   80   64:   84
           5       1:   54    1:   80   85:  105
           6       1:   54    1:   80  106:  125
           7       1:   54   81:  160    1:   21
           8       1:   54   81:  160   22:   42
           9       1:   54   81:  160   43:   63
          10       1:   54   81:  160   64:   84
          11       1:   54   81:  160   85:  105
          12       1:   54   81:  160  106:  125
          13       1:   54  161:  240    1:   21
          14       1:   54  161:  240   22:   42
          15       1:   54  161:  240   43:   63
          16       1:   54  161:  240   64:   84
          17       1:   54  161:  240   85:  105
          18       1:   54  161:  240  106:  125
          19       1:   54  241:  320    1:   21
          20       1:   54  241:  320   22:   42
          21       1:   54  241:  320   43:   63
          22       1:   54  241:  320   64:   84
          23       1:   54  241:  320   85:  105
          24       1:   54  241:  320  106:  125

InitMesh: MESH =   108 x   640 x   250 =    17280000
InitMesh: (bp) =    54 x   320 x   125 =     2160000
InitMesh: Mesh cutoff (required, used) =   400.000   409.734 Ry
ExtMesh (bp) on 0 =   118 x   148 x    89 =     1554296
New grid distribution:   2
           1       1:   54    1:   47    1:   63
           2       1:   54   95:  109    1:   59
           3       1:   54   64:   71    1:   63
           4       1:   54   48:   63   64:   67
           5       1:   54    1:   47   64:  125
           6       1:   54   48:   63   68:  125
           7       1:   54  110:  117    1:   63
           8       1:   54   48:   63   60:   63
           9       1:   54   48:   63    1:   59
          10       1:   54   72:   86    1:   59
          11       1:   54   87:   94    1:   63
          12       1:   54   72:   86   60:   63
          13       1:   54  118:  320    1:   58
          14       1:   54   72:   86   68:  125
          15       1:   54   87:   94   64:  125
          16       1:   54   95:  109   60:   63
          17       1:   54  118:  320   68:  125
          18       1:   54   95:  109   68:  125
          19       1:   54   64:   71   64:  125
          20       1:   54   95:  109   64:   67
          21       1:   54  118:  320   59:   63
          22       1:   54  118:  320   64:   67
          23       1:   54  110:  117   64:  125
          24       1:   54   72:   86   64:   67
New grid distribution:   3
           1       1:   54    1:   33    1:   63
           2       1:   54   66:   86    1:   55
           3       1:   54   55:   65    1:   63
           4       1:   54   34:   54   64:   71
           5       1:   54    1:   33   64:  125
           6       1:   54   66:   86   56:   63
           7       1:   54   98:  118    1:   55
           8       1:   54  119:  129    1:   63
           9       1:   54   34:   54    1:   55
          10       1:   54  130:  320   64:   70
          11       1:   54   87:   97    1:   63
          12       1:   54   34:   54   56:   63
          13       1:   54  130:  320    1:   56
          14       1:   54   66:   86   72:  125
          15       1:   54   87:   97   64:  125
          16       1:   54   98:  118   56:   63
          17       1:   54  130:  320   71:  125
          18       1:   54   98:  118   72:  125
          19       1:   54   55:   65   64:  125
          20       1:   54   98:  118   64:   71
          21       1:   54  130:  320   57:   63
          22       1:   54   34:   54   72:  125
          23       1:   54  119:  129   64:  125
          24       1:   54   66:   86   64:   71
Setting up quadratic distribution...
ExtMesh (bp) on 0 =   118 x   115 x   131 =     1777670
PhiOnMesh: Number of (b)points on node 0 =               159894
PhiOnMesh: nlist on node 0 =               618916

        iscf     Eharris(eV)        E_KS(eV)     FreeEng(eV)     dDmax    Ef(eV) dHmax(eV)
   scf:    1    -7886.610338    -7886.962156    -7886.969657  0.019248 -3.692841  1.686342
   scf:    2    -7859.104199    -7878.321455    -7878.321455  0.091637 -3.632631 11.141353
   scf:    3    -7890.394286    -7886.617516    -7886.624078  0.053725 -3.678523  2.539907
   scf:    4    -7884.817050    -7885.805753    -7885.807179  0.018328 -3.674072  4.021383
   scf:    5    -7886.229090    -7887.060899    -7887.068085  0.054864 -3.674247  1.064746
   scf:    6    -7886.298559    -7886.734771    -7886.741980  0.016141 -3.672924  2.232238
   scf:    7    -7885.523805    -7886.839597    -7886.847310  0.034015 -3.669299  1.913376
   scf:    8    -7887.243748    -7887.150032    -7887.158184  0.018761 -3.667075  0.308769
   scf:    9    -7887.157774    -7887.158262    -7887.166162  0.003307 -3.666757  0.035271
   scf:   10    -7887.158328    -7887.158482    -7887.166078  0.001192 -3.666122  0.055052
   scf:   11    -7887.158506    -7887.158498    -7887.165996  0.000290 -3.666113  0.065539
   scf:   12    -7887.158783    -7887.158793    -7887.166295  0.000503 -3.666102  0.008205
   scf:   13    -7887.160279    -7887.159549    -7887.166313  0.001746 -3.666035  0.038761
   scf:   14    -7887.160612    -7887.160118    -7887.166464  0.001061 -3.665903  0.003739
   scf:   15    -7887.160414    -7887.160265    -7887.166476  0.000277 -3.665802  0.003719
   scf:   16    -7887.160462    -7887.160363    -7887.166483  0.000184 -3.665721  0.002399
   scf:   17    -7887.161221    -7887.160778    -7887.166501  0.000797 -3.665519  0.003923
   scf:   18    -7887.160759    -7887.160769    -7887.166503  0.000041 -3.665524  0.001020
   scf:   19    -7887.160948    -7887.160858    -7887.166504  0.000196 -3.665485  0.001357
   scf:   20    -7887.160859    -7887.160858    -7887.166504  0.000022 -3.665502  0.000876
   scf:   21    -7887.160942    -7887.160900    -7887.166505  0.000089 -3.665509  0.000247
   scf:   22    -7887.160897    -7887.160898    -7887.166505  0.000003 -3.665515  0.000149

SCF Convergence by DM+H criterion
max |DM_out - DM_in|         :     0.0000032804
max |H_out - H_in|      (eV) :     0.0001486435
SCF cycle converged after 22 iterations

Using DM_out to compute the final energy and forces
No. of atoms with KB's overlaping orbs in proc 0. Max # of overlaps:      50     217

siesta: E_KS(eV) =            -7887.1609

siesta: Total spin polarization (Qup-Qdown) =    0.001417

siesta: Atomic forces (eV/Ang):
----------------------------------------
   Tot    0.020174   -0.016402    0.000000
----------------------------------------
   Max    0.432210
   Res    0.081188    sqrt( Sum f_i^2 / 3N )
----------------------------------------
   Max    0.432210    constrained

Stress-tensor-Voigt (kbar):        0.85        0.52        0.01       -0.08       -0.00       -0.00
(Free)E + p*V (eV/cell)    -7889.7079
Target enthalpy (eV/cell)    -7887.1665
 
mulliken: Atomic and Orbital Populations:

mulliken: Spin UP 

Species: H.ca                
Atom  Qatom  Qorb
               1s      1s      1Ppy    1Ppz    1Ppx    
   1  0.624   0.409   0.159   0.025   0.017   0.014
   3  0.625   0.422   0.150   0.024   0.018   0.012
   9  0.624   0.421   0.149   0.024   0.018   0.013
  32  0.621   0.407   0.157   0.018   0.018   0.020
  33  0.622   0.408   0.157   0.018   0.019   0.020
  52  0.623   0.421   0.146   0.023   0.019   0.013
  56  0.623   0.419   0.148   0.024   0.020   0.012
  58  0.621   0.405   0.157   0.025   0.020   0.014

Species: C.ca2               
Atom  Qatom  Qorb
               2s      2s      2py     2pz     2px     2py     2pz     2px     
               2Pdxy   2Pdyz   2Pdz2   2Pdxz   2Pdx2-y2
[...]
         28.90  29.18  29.94  30.12  30.20  30.71  30.73  31.20  31.23  31.23
         31.32  31.66  32.14  32.50  32.63  32.67  32.68  33.06  33.18  33.26
         33.72  34.31  34.48  34.80  34.87  34.87  34.94  35.15  35.33  35.40
         35.53  35.54  35.61  35.62  35.86  36.09  36.12  36.28  36.37  36.82
         36.90  37.38  37.67  37.73  37.76  37.84  38.41  38.49  38.93  39.42
         39.43  39.78  40.57  40.75  40.78  40.84  41.82  42.02  42.54  42.73
         42.75  42.78  43.27  43.53  43.61  43.64  43.80  44.16  44.24  44.40
         44.63  44.78  44.96  45.15  45.64  45.68  45.73  45.78  45.97  46.42
         46.47  46.47  46.68  46.83  47.29  47.36  47.40  47.52  47.61  47.78
         48.19  48.38  48.42  48.75  48.78  48.93  48.98  49.13  49.19  49.26
         49.29  49.38  49.45  49.49  49.59  50.06  50.13  50.41  50.64  50.69
         50.78  51.07  51.10  51.20  51.59  51.64  51.64  51.83  52.11  52.58
         52.73  52.76  52.88  53.07  53.55  53.57  53.85  53.94  53.97  54.20
         54.23  54.44  54.59  54.92  55.01  55.16  55.18  55.22  55.38  55.98
         56.23  56.27  56.33  56.36  56.39  56.46  56.65  57.13  57.92  58.02
         58.21  58.46  58.76  58.89  59.40  59.52  59.59  59.70  59.71  60.17
         60.24  60.61  60.70  60.85  60.93  61.03  61.05  61.31  61.43  61.48
         61.88  62.09  62.22  62.28  63.06  63.16  63.67  63.93  63.96  64.84
         65.33  65.39  66.00  66.80  67.66  68.33  68.38  69.37  69.80  70.03
         70.63  70.72  70.89  71.03  71.62  71.64  71.65  71.67  71.83  72.22
         72.33  72.85  72.94  72.96  73.13  73.30  73.84  73.88  73.96  74.14
         74.25  74.27  74.36  74.37  74.54  74.58  74.84  75.36  76.14  76.26
         76.69  77.27  78.15  78.33  78.37  78.43  79.99  80.91  81.13  81.21
         81.33  81.47  81.82  82.13  82.49  83.10  83.12  83.36  84.32  84.51
         84.87  86.53  86.66  87.89  88.41  88.98  90.06  90.28  90.36  91.76
         92.11  92.65  93.78  94.00  96.38  97.17  97.24  98.28  99.29  99.59
        100.50 100.73 100.85 101.86 102.34 102.99 103.44 104.45 104.88 105.27
        105.57 107.42 107.60 109.44 111.25 112.26 112.61 113.71 113.95 116.02
        117.32 117.47 117.53 118.36 119.03 120.37 121.89 123.15 123.82 126.97
        127.95 128.84 129.44 130.08 131.32 133.06 135.02 135.17 136.88 137.30
        137.57 137.81 138.51 138.69 139.84 140.81 141.56 143.28 143.91 144.28
        147.52 148.04 148.12 148.92 149.02 153.00 162.21 162.70 191.27 192.52
  51  1 -22.46 -22.44 -22.15 -22.07 -21.67 -21.51 -20.99 -20.76 -20.15 -19.89
        -19.83 -19.78 -19.50 -19.49 -19.16 -19.02 -18.93 -18.79 -18.33 -18.22
        -18.07 -17.77 -17.61 -17.01 -16.86 -16.40 -16.09 -15.64 -15.38 -15.24
        -14.93 -14.90 -14.76 -14.52 -14.47 -14.13 -13.87 -13.87 -13.73 -13.71
        -13.32 -13.27 -13.11 -13.06 -12.90 -12.79 -12.10 -11.83 -11.76 -11.73
        -11.32 -11.22 -10.97 -10.74 -10.68 -10.65 -10.65 -10.64 -10.47 -10.32
        -10.32 -10.23 -10.17 -10.05  -9.91  -9.89  -9.86  -9.81  -9.75  -9.63
         -9.59  -9.53  -9.49  -9.11  -9.06  -9.00  -8.88  -8.74  -8.70  -8.44
         -8.24  -8.21  -8.13  -8.08  -7.79  -7.77  -7.74  -7.62  -7.60  -7.49
         -7.45  -7.28  -7.26  -7.09  -6.78  -6.72  -6.59  -6.27  -6.11  -6.10
         -5.48  -5.46  -4.66  -4.61  -2.60  -2.57  -1.92  -1.73  -1.43  -1.37
         -1.24  -0.55  -0.52  -0.43  -0.26   0.19   0.21   0.67   0.69   1.00
          1.22   2.02   2.03   2.54   2.54   2.57   2.79   3.82   3.90   4.10
          4.10   4.28   4.31   4.32   4.47   4.51   4.85   4.88   5.00   5.05
          5.08   5.16   5.34   5.44   5.49   5.64   5.69   5.78   5.96   6.09
          6.24   6.40   6.48   6.52   6.53   6.69   6.98   6.99   7.35   7.65
          7.71   7.74   8.14   8.34   8.40   8.42   8.51   8.54   8.71   8.72
          8.79   8.86   9.01   9.07   9.08   9.22   9.36   9.49   9.56   9.72
          9.89   9.96  10.02  10.06  10.14  10.16  10.20  10.28  10.49  10.50
         10.53  10.56  10.64  10.72  10.88  10.99  11.12  11.12  11.15  11.22
         11.22  11.31  11.37  11.49  11.58  11.59  11.71  11.73  11.75  11.79
         11.93  12.01  12.02  12.15  12.18  12.35  12.39  12.43  12.44  12.49
         12.54  12.54  12.59  12.60  12.65  12.65  12.68  12.71  12.75  12.80
         12.84  12.86  12.95  13.04  13.05  13.21  13.23  13.28  13.30  13.47
         13.50  13.53  13.55  13.86  13.88  13.96  14.15  14.25  14.35  14.35
         14.39  14.40  14.47  14.63  15.01  15.71  15.82  15.82  15.87  16.03
         16.09  16.25  16.50  16.52  17.39  17.41  17.42  17.46  17.61  17.70
         18.06  18.10  18.10  18.25  18.30  18.31  18.36  18.44  18.51  18.54
         18.54  18.65  18.83  18.85  18.88  18.95  18.96  19.27  19.32  19.37
         19.42  19.49  19.51  19.67  19.76  20.03  20.24  20.32  20.36  20.59
         20.60  20.62  20.64  20.72  20.78  20.85  20.92  21.08  21.13  21.19
         21.23  21.31  21.31  21.37  21.44  21.48  21.49  21.54  21.56  21.70
         21.72  21.79  21.84  21.98  21.98  22.00  22.26  22.26  22.36  22.56
         22.62  22.63  22.65  22.65  22.70  22.73  22.83  22.89  22.92  22.95
         23.09  23.15  23.26  23.39  23.64  23.80  24.13  24.23  24.50  24.56
         24.70  24.78  24.87  25.10  25.24  25.42  25.50  25.77  25.91  26.10
         26.20  26.27  26.47  26.89  27.10  27.17  27.92  28.36  28.48  28.84
         28.84  29.18  29.94  30.14  30.19  30.71  30.72  31.20  31.23  31.24
         31.31  31.66  32.14  32.51  32.63  32.67  32.68  33.08  33.19  33.22
         33.72  34.32  34.48  34.79  34.87  34.88  34.96  35.11  35.33  35.40
         35.53  35.54  35.60  35.62  35.89  36.06  36.12  36.29  36.36  36.81
         36.89  37.38  37.68  37.73  37.74  37.84  38.43  38.46  38.93  39.41
         39.43  39.78  40.57  40.75  40.78  40.84  41.82  42.02  42.54  42.73
         42.76  42.77  43.27  43.53  43.61  43.65  43.80  44.16  44.24  44.40
         44.63  44.78  44.96  45.15  45.65  45.69  45.73  45.77  45.97  46.42
         46.47  46.48  46.70  46.82  47.29  47.36  47.40  47.52  47.64  47.76
         48.19  48.39  48.42  48.75  48.79  48.94  48.97  49.13  49.19  49.27
         49.29  49.38  49.44  49.54  49.54  50.06  50.13  50.41  50.63  50.72
         50.75  51.09  51.10  51.19  51.60  51.64  51.64  51.82  52.11  52.59
         52.73  52.77  52.87  53.07  53.55  53.58  53.85  53.94  53.96  54.20
         54.23  54.45  54.59  54.96  55.01  55.16  55.17  55.21  55.36  55.98
         56.24  56.27  56.34  56.34  56.38  56.46  56.63  57.13  57.93  58.02
         58.21  58.46  58.77  58.89  59.41  59.53  59.58  59.70  59.70  60.19
         60.23  60.61  60.71  60.86  60.92  61.03  61.05  61.31  61.48  61.63
         61.89  62.02  62.10  62.28  63.08  63.14  63.67  63.93  63.96  64.84
         65.33  65.39  66.01  66.81  67.66  68.33  68.38  69.37  69.80  70.03
         70.72  70.73  70.80  71.03  71.63  71.64  71.65  71.67  71.83  72.23
         72.33  72.85  72.95  72.96  73.13  73.30  73.84  73.88  73.97  74.15
         74.26  74.28  74.33  74.36  74.54  74.57  74.84  75.36  76.15  76.26
         76.70  77.26  78.15  78.36  78.37  78.40  80.00  80.91  81.16  81.17
         81.35  81.51  81.79  82.10  82.51  83.11  83.18  83.27  84.32  84.51
         84.86  86.54  86.66  87.90  88.43  89.00  90.05  90.29  90.33  91.78
         92.09  92.66  93.75  93.98  96.37  97.19  97.22  98.30  99.28  99.58
        100.50 100.75 100.82 101.87 102.34 102.99 103.47 104.45 104.86 105.40
        105.45 107.47 107.54 109.45 111.34 112.34 112.55 113.73 113.96 115.92
        117.38 117.44 117.52 118.36 119.02 120.56 121.76 123.37 123.53 126.98
        127.99 128.88 129.44 130.04 131.28 133.04 135.04 135.29 137.14 137.33
        137.39 138.02 138.11 138.65 139.84 140.86 141.50 143.31 143.90 144.27
        147.53 148.08 148.12 148.86 149.01 152.99 162.32 162.60 191.75 192.06
  51  2 -22.46 -22.44 -22.15 -22.07 -21.67 -21.51 -20.99 -20.76 -20.15 -19.89
        -19.83 -19.78 -19.50 -19.49 -19.16 -19.02 -18.93 -18.79 -18.33 -18.22
        -18.07 -17.77 -17.61 -17.01 -16.86 -16.40 -16.09 -15.64 -15.38 -15.24
        -14.93 -14.90 -14.76 -14.52 -14.47 -14.13 -13.87 -13.87 -13.73 -13.71
        -13.32 -13.27 -13.11 -13.06 -12.90 -12.79 -12.10 -11.83 -11.76 -11.73
        -11.32 -11.22 -10.97 -10.74 -10.68 -10.65 -10.65 -10.64 -10.47 -10.32
        -10.32 -10.23 -10.17 -10.05  -9.91  -9.89  -9.86  -9.81  -9.75  -9.63
         -9.59  -9.53  -9.49  -9.11  -9.06  -9.00  -8.88  -8.74  -8.70  -8.44
         -8.24  -8.21  -8.13  -8.08  -7.79  -7.77  -7.74  -7.62  -7.60  -7.49
         -7.45  -7.28  -7.26  -7.09  -6.78  -6.72  -6.59  -6.27  -6.11  -6.10
         -5.48  -5.46  -4.66  -4.61  -2.60  -2.57  -1.92  -1.73  -1.43  -1.37
         -1.24  -0.55  -0.52  -0.43  -0.26   0.19   0.21   0.67   0.69   1.00
          1.22   2.02   2.03   2.54   2.54   2.57   2.79   3.82   3.90   4.10
          4.10   4.28   4.31   4.32   4.47   4.51   4.85   4.88   5.00   5.05
          5.08   5.16   5.34   5.44   5.49   5.64   5.69   5.78   5.96   6.09
          6.24   6.40   6.48   6.52   6.53   6.69   6.98   6.99   7.35   7.65
          7.71   7.74   8.14   8.34   8.40   8.42   8.51   8.54   8.71   8.72
          8.79   8.86   9.01   9.07   9.08   9.22   9.36   9.49   9.56   9.72
          9.89   9.96  10.02  10.06  10.14  10.16  10.20  10.28  10.49  10.50
         10.53  10.56  10.64  10.72  10.88  10.99  11.12  11.12  11.15  11.22
         11.22  11.31  11.37  11.49  11.58  11.59  11.71  11.73  11.75  11.79
         11.93  12.01  12.02  12.15  12.18  12.35  12.39  12.43  12.44  12.49
         12.54  12.54  12.59  12.60  12.65  12.65  12.68  12.71  12.75  12.80
         12.84  12.86  12.95  13.04  13.05  13.21  13.23  13.28  13.30  13.47
         13.50  13.53  13.55  13.86  13.88  13.96  14.15  14.25  14.35  14.35
         14.39  14.40  14.47  14.63  15.01  15.71  15.82  15.82  15.87  16.03
         16.09  16.25  16.50  16.52  17.39  17.41  17.42  17.46  17.61  17.70
         18.06  18.10  18.10  18.25  18.30  18.31  18.36  18.44  18.51  18.54
         18.54  18.65  18.83  18.85  18.88  18.95  18.96  19.27  19.32  19.37
         19.42  19.49  19.51  19.67  19.76  20.03  20.24  20.32  20.36  20.59
         20.60  20.62  20.64  20.72  20.78  20.85  20.92  21.08  21.13  21.19
         21.23  21.31  21.31  21.37  21.44  21.48  21.49  21.54  21.56  21.70
         21.72  21.79  21.84  21.98  21.98  22.00  22.26  22.26  22.36  22.56
         22.62  22.63  22.65  22.65  22.70  22.73  22.83  22.89  22.92  22.95
         23.09  23.15  23.26  23.39  23.64  23.80  24.13  24.23  24.50  24.56
         24.70  24.78  24.87  25.10  25.24  25.42  25.50  25.77  25.91  26.10
         26.20  26.27  26.47  26.89  27.10  27.17  27.92  28.36  28.48  28.84
         28.84  29.18  29.94  30.14  30.19  30.71  30.72  31.20  31.23  31.24
         31.31  31.66  32.14  32.51  32.63  32.67  32.68  33.08  33.19  33.22
         33.72  34.32  34.48  34.80  34.87  34.88  34.96  35.11  35.33  35.40
         35.53  35.54  35.60  35.62  35.89  36.06  36.12  36.29  36.36  36.81
         36.89  37.38  37.68  37.73  37.74  37.84  38.43  38.46  38.93  39.41
         39.43  39.78  40.57  40.75  40.78  40.84  41.82  42.02  42.54  42.73
         42.76  42.77  43.27  43.53  43.61  43.65  43.80  44.16  44.24  44.40
         44.63  44.78  44.96  45.15  45.65  45.69  45.73  45.77  45.97  46.42
         46.47  46.48  46.70  46.82  47.29  47.36  47.40  47.52  47.64  47.76
         48.19  48.39  48.42  48.76  48.79  48.94  48.97  49.13  49.19  49.27
         49.29  49.38  49.44  49.54  49.54  50.06  50.13  50.41  50.63  50.72
         50.75  51.09  51.10  51.19  51.60  51.64  51.64  51.82  52.11  52.59
         52.73  52.77  52.87  53.07  53.55  53.58  53.85  53.94  53.96  54.20
         54.23  54.45  54.59  54.96  55.01  55.16  55.17  55.21  55.36  55.98
         56.24  56.27  56.34  56.34  56.38  56.47  56.63  57.13  57.93  58.02
         58.21  58.46  58.77  58.89  59.41  59.53  59.58  59.70  59.70  60.19
         60.23  60.61  60.71  60.86  60.92  61.03  61.05  61.31  61.48  61.63
         61.89  62.02  62.10  62.28  63.08  63.14  63.67  63.93  63.96  64.84
         65.33  65.39  66.01  66.81  67.66  68.33  68.38  69.37  69.80  70.03
         70.72  70.73  70.80  71.03  71.63  71.64  71.65  71.67  71.83  72.23
         72.33  72.85  72.95  72.96  73.13  73.30  73.84  73.88  73.97  74.15
         74.26  74.28  74.33  74.36  74.54  74.57  74.84  75.36  76.15  76.26
         76.70  77.26  78.15  78.36  78.37  78.40  80.00  80.92  81.16  81.17
         81.35  81.51  81.79  82.10  82.51  83.11  83.18  83.27  84.32  84.51
         84.86  86.54  86.66  87.90  88.43  89.00  90.05  90.29  90.34  91.78
         92.09  92.66  93.75  93.98  96.37  97.19  97.22  98.30  99.28  99.58
        100.50 100.75 100.82 101.87 102.34 102.99 103.47 104.45 104.86 105.40
        105.45 107.47 107.54 109.45 111.34 112.34 112.55 113.73 113.96 115.92
        117.38 117.44 117.52 118.36 119.02 120.56 121.76 123.37 123.53 126.98
        127.99 128.88 129.44 130.04 131.28 133.04 135.04 135.29 137.14 137.33
        137.39 138.02 138.11 138.65 139.84 140.86 141.50 143.31 143.90 144.27
        147.53 148.08 148.12 148.86 149.01 152.99 162.32 162.60 191.75 192.06
siesta: Fermi energy =      -3.667198 eV

siesta: Program's energy decomposition (eV):
siesta: Ebs     =     -2606.919079
siesta: Eions   =     12929.823582
siesta: Ena     =      2705.946258
siesta: Ekin    =      5640.198342
siesta: Enl     =      -734.381862
siesta: Eso     =         0.000000
siesta: Eldau   =         0.000000
siesta: DEna    =      -145.729368
siesta: DUscf   =        14.136823
siesta: DUext   =         0.000000
siesta: Enegf   =         0.000000
siesta: Exc     =     -2437.532090
siesta: eta*DQ  =         0.000000
siesta: Emadel  =         0.000000
siesta: Emeta   =         0.000000
siesta: Emolmec =         0.000000
siesta: Ekinion =         0.000000
siesta: Eharris =     -7887.185479
siesta: Etot    =     -7887.185479
siesta: FreeEng =     -7887.191275

siesta: Final energy (eV):
siesta:  Band Struct. =   -2606.919079
siesta:       Kinetic =    5640.198342
siesta:       Hartree =   77323.548090
siesta:       Eldau   =       0.000000
siesta:       Eso     =       0.000000
siesta:    Ext. field =       0.000000
siesta:       Enegf   =       0.000000
siesta:   Exch.-corr. =   -2437.532090
siesta:  Ion-electron = -159707.375141
siesta:       Ion-ion =   71293.975319
siesta:       Ekinion =       0.000000
siesta:         Total =   -7887.185479
siesta:         Fermi =      -3.667198

siesta: Stress tensor (static) (eV/Ang**3):
siesta:     0.000375   -0.000005   -0.000000
siesta:    -0.000005    0.000010   -0.000000
siesta:    -0.000000   -0.000000    0.000004

siesta: Cell volume =       8870.000000 Ang**3

siesta: Pressure (static):
siesta:                Solid            Molecule  Units
siesta:          -0.00000141         -0.00000141  Ry/Bohr**3
siesta:          -0.00012965         -0.00012966  eV/Ang**3
siesta:          -0.20772058         -0.20774333  kBar
(Free)E+ p_basis*V_orbitals  =       -7870.444304
(Free)Eharris+ p_basis*V_orbitals  =       -7870.444304

siesta: Total spin polarization (Qup-Qdown) =   -0.000006

siesta: Electric dipole (a.u.)  =    0.000000    0.000453   -0.000000
siesta: Electric dipole (Debye) =    0.000000    0.001152   -0.000000

Hirshfeld Net Atomic Populations:
Atom #    Qatom  Species
     1    0.026  H.ca                
     2    0.003  C.ca2               
     3    0.029  H.ca                
     4   -0.037  C.ca2               
     5    0.004  C.ca2               
     6    0.000  C.ca2               
     7    0.001  C.ca2               
     8   -0.000  C.ca2               
     9    0.033  H.ca                
    10   -0.036  C.ca2               
    11    0.005  C.ca2               
    12    0.002  C.ca2               
    13    0.000  C.ca2               
    14    0.000  C.ca2               
    15   -0.000  C.ca2               
    16   -0.000  C.ca2               
    17   -0.000  C.ca2               
    18   -0.001  C.ca2               
    19   -0.032  C.ca2               
    20   -0.034  C.ca2               
    21    0.003  C.ca2               
    22    0.000  C.ca2               
    23   -0.000  C.ca2               
    24   -0.000  C.ca2               
    25   -0.000  C.ca2               
    26   -0.000  C.ca2               
    27   -0.000  C.ca2               
    28   -0.000  C.ca2               
    29    0.000  C.ca2               
    30    0.003  C.ca2               
    31   -0.032  C.ca2               
    32    0.030  H.ca                
    33    0.030  H.ca                
    34    0.005  C.ca2               
    35   -0.001  C.ca2               
    36   -0.001  C.ca2               
    37   -0.000  C.ca2               
    38   -0.000  C.ca2               
    39   -0.000  C.ca2               
    40    0.000  C.ca2               
    41    0.000  C.ca2               
    42    0.002  C.ca2               
    43    0.005  C.ca2               
    44   -0.036  C.ca2               
    45   -0.000  C.ca2               
    46   -0.000  C.ca2               
    47   -0.000  C.ca2               
    48    0.001  C.ca2               
    49    0.000  C.ca2               
    50    0.004  C.ca2               
    51   -0.037  C.ca2               
    52    0.033  H.ca                
    53   -0.001  C.ca2               
    54    0.003  C.ca2               
    55    0.005  C.ca2               
    56    0.029  H.ca                
    57   -0.034  C.ca2               
    58    0.026  H.ca                

Voronoi Net Atomic Populations:
Atom #    Qatom  Species
     1    0.005  H.ca                
     2    0.004  C.ca2               
     3    0.004  H.ca                
     4   -0.015  C.ca2               
     5    0.005  C.ca2               
     6    0.001  C.ca2               
     7    0.002  C.ca2               
     8   -0.001  C.ca2               
     9    0.009  H.ca                
    10   -0.012  C.ca2               
    11    0.006  C.ca2               
    12    0.000  C.ca2               
    13   -0.001  C.ca2               
    14    0.002  C.ca2               
    15   -0.001  C.ca2               
    16   -0.000  C.ca2               
    17   -0.000  C.ca2               
    18   -0.000  C.ca2               
    19   -0.008  C.ca2               
    20   -0.012  C.ca2               
    21    0.004  C.ca2               
    22   -0.005  C.ca2               
    23   -0.000  C.ca2               
    24    0.001  C.ca2               
    25   -0.000  C.ca2               
    26   -0.002  C.ca2               
    27   -0.000  C.ca2               
    28    0.002  C.ca2               
    29   -0.003  C.ca2               
    30    0.002  C.ca2               
    31   -0.007  C.ca2               
    32    0.008  H.ca                
    33    0.010  H.ca                
    34    0.007  C.ca2               
    35   -0.003  C.ca2               
    36   -0.001  C.ca2               
    37    0.002  C.ca2               
    38    0.002  C.ca2               
    39   -0.003  C.ca2               
    40   -0.001  C.ca2               
    41    0.002  C.ca2               
    42    0.001  C.ca2               
    43    0.005  C.ca2               
    44   -0.012  C.ca2               
    45   -0.004  C.ca2               
    46    0.002  C.ca2               
    47    0.000  C.ca2               
    48    0.001  C.ca2               
    49   -0.000  C.ca2               
    50    0.005  C.ca2               
    51   -0.013  C.ca2               
    52    0.008  H.ca                
    53   -0.000  C.ca2               
    54    0.003  C.ca2               
    55    0.005  C.ca2               
    56    0.005  H.ca                
    57   -0.010  C.ca2               
    58    0.004  H.ca                
>> End of run:  17-APR-2018  18:20:26
Job completed
Job completed
