Siesta Version  : siesta-4.1--852
Architecture    : unknown
Compiler version: ifort (IFORT) 17.0.4 20170411
Compiler flags  : mpiifort -O1 -xHost -mp1 -fpp -ftz -I/scicomp/easybuild/CentOS/7.3.1611/Hasweell/software/imkl/2017.3.196-iimpi-2017b/mkl/include -I/scratch/scicomp/easybuild/CentOS/7.3.1611/Haswell/software/netCDF-Fortran/4.4.4-intel-2017b/include -I/scratch/scicomp/easybuild/CentOS/7.3.1611/Haswell/software/netCDF/4.4.1.1-intel-2017b/include
PP flags        :  -DFC_HAVE_ABORT -DMPI -DCDF -DNCDF -DNCDF_4 -DGRID_DP -DNCDF_PARALLEL
Libraries       : libncdf.a libfdict.a -L/scratch/scicomp/easybuild/CentOS/7.3.1611/Haswell/sofftware/netCDF-Fortran/4.4.4-intel-2017b/lib -lnetcdff -L/scratch/scicomp/easybuild/CentOS/7.3.1611/Haswell/software/cURL/7.56.0-GCCcore-6.4.0/lib -lcurl -L/scratch/scicomp/easybuild/CentOS/7.3.1611/Haswell/software/netCDF/4.4.1.1-intel-2017b/lib64 -lnetcdf -L/scratch/scicomp/easybuild/CentOS/7.3.1611/Haswell/software/HDF5/1.10.1-intel-2017b/lib -lhdf5hl_fortran -lhdf5_fortran -lhdf5_hl -lhdf5 -L/scratch/scicomp/easybuild/CentOS/7.3.1611/Haswell/software/Szip/2.1.1-GCCcore-6.4.0/lib -lsz -L/scratch/scicomp/easybuild/CentOS/7.3.1611/Haswell/software/zlib/1.2.11-GCCcore-6.4.0/lib -lz /scicomp/easybuild/CentOS/7.3.1611/Haswell/software/imkl/2017.3.196-iimpi-2017b/mkl/lib/intel64/libmkl_scalapack_lp64.a -Wl,--start-group /scicomp/easybuild/CentOS/7.3.1611/Haswell/software/imkl/2017.3.196-iimpi-2017b/mkl/lib/intel64/libmkl_intel_lp64.a /scicomp/easybuild/CentOS/7.3.1611/Haswell/software/imkl/2017.3.196-iimpi-2017b/mkl/lib/intel64/libmkl_sequential.a /scicomp/easybuild/CentOS/7.3.1611/Haswell/software/imkl/2017.3.196-iimpi-2017b/mkl/lib/intel64/libmkl_core.a /scicomp/easybuild/CentOS/7.3.1611/Haswell/software/imkl/2017.3.196-iimpi-2017b/mkl/lib/intel64/libmkl_blacs_intelmpi_lp64.a -Wl,--end-group -lpthread -lm -ldl
PARALLEL version
NetCDF support
NetCDF-4 support
NetCDF-4 MPI-IO support

* Running on 24 nodes in parallel
>> Start of run:  17-APR-2018  16:12:08

                           ***********************       
                           *  WELCOME TO SIESTA  *       
                           ***********************       

reinit: Reading from standard input
reinit: Dumped input in INPUT_TMP.08940
************************** Dump of input data file ****************************
SystemTitle molecule
SystemLabel molecule
SolutionMethod     diagon
TS.HS.Save         true
MD.TypeOfRun  CG
MD.TypeOfRun  Broyden
MD.Broyden.Cycle.On.Maxit F
MD.NumCGsteps  1000
MD.MaxForceTol 0.002 eV/Ang
Diag.ParallelOverK true
%block kgrid_Monkhorst_Pack
 100    0    0    0.0
  0    1    0    0.0
  0    0    1    0.0
%endblock kgrid_Monkhorst_Pack
MaxSCFIterations      3000
SCFMustConverge       true
DM.Tolerance          1.d-5
DM.UseSaveDM          true
DM.NumberPulay	      7
DM.MixingWeight       0.1
MD.UseSaveXV          true
XC.functional         LDA
XC.authors     	      CA
MeshCutoff            400. Ry
PAO.BasisSize   DZP
PAO.BasisType   split
%block ChemicalSpeciesLabel
    1   1 H.ca
    2   6 C.ca2
%endblock ChemicalSpeciesLabel
%include STRUCT.fdf
SpinPolarized   true
#FixSpin  true
#Spin.Fix true
#Spin.Total 0
#TotalSpin  0
%block DM.InitSpin
41   1.
10  -1.
%endblock DM.InitSpin
WriteMullikenPop 1
WriteHirshfeldPop true
WriteVoronoiPop true
WriteEigenvalues true
WriteWaveFunctions true
************************** End of input data file *****************************

reinit: -----------------------------------------------------------------------
reinit: System Name: 
reinit: -----------------------------------------------------------------------
reinit: System Label: molecule
reinit: -----------------------------------------------------------------------

initatom: Reading input for the pseudopotentials and atomic orbitals ----------
Species number:   1 Atomic number:    1 Label: H.ca
Species number:   2 Atomic number:    6 Label: C.ca2
 
Ground state valence configuration:   1s01
Reading pseudopotential information in formatted form from H.ca.psf

Pseudopotential generated from a relativistic atomic calculation

Valence configuration for pseudopotential generation:
1s( 1.00) rc: 1.31
2p( 0.00) rc: 1.31
3d( 0.00) rc: 0.37
4f( 0.00) rc: 1.31
Ground state valence configuration:   2s02  2p02
Reading pseudopotential information in formatted form from C.ca2.psf

Pseudopotential generated from a relativistic atomic calculation

Valence configuration for pseudopotential generation:
2s( 2.00) rc: 1.54
2p( 2.00) rc: 1.54
3d( 0.00) rc: 1.54
4f( 0.00) rc: 1.54
For H.ca, standard SIESTA heuristics set lmxkb to 2
 (one more than the basis l, including polarization orbitals).
Use PS.lmax or PS.KBprojectors blocks to override.
For C.ca2, standard SIESTA heuristics set lmxkb to 3
 (one more than the basis l, including polarization orbitals).
Use PS.lmax or PS.KBprojectors blocks to override.

<basis_specs>
===============================================================================
H.ca                 Z=   1    Mass=  1.0100        Charge= 0.17977+309
Lmxo=0 Lmxkb= 2    BasisType=split      Semic=F
L=0  Nsemic=0  Cnfigmx=1
          n=1  nzeta=2  polorb=1
            splnorm:   0.15000    
               vcte:    0.0000    
               rinn:    0.0000    
               qcoe:    0.0000    
               qyuk:    0.0000    
               qwid:   0.10000E-01
                rcs:    0.0000      0.0000    
            lambdas:    1.0000      1.0000    
-------------------------------------------------------------------------------
L=0  Nkbl=1  erefs: 0.17977+309
L=1  Nkbl=1  erefs: 0.17977+309
L=2  Nkbl=1  erefs: 0.17977+309
===============================================================================
</basis_specs>

atom: Called for H.ca                  (Z =   1)

read_vps: Pseudopotential generation method:
read_vps: ATM3.3.2  Troullier-Martins                       
Total valence charge:    1.00000

xc_check: Exchange-correlation functional:
xc_check: Ceperley-Alder
V l=0 = -2*Zval/r beyond r=  1.2977
V l=1 = -2*Zval/r beyond r=  1.2815
V l=2 = -2*Zval/r beyond r=  1.1307
All V_l potentials equal beyond r=  1.2977
This should be close to max(r_c) in ps generation
All pots = -2*Zval/r beyond r=  1.2977

VLOCAL1: 99.0% of the norm of Vloc inside     25.776 Ry
VLOCAL1: 99.9% of the norm of Vloc inside     58.745 Ry
atom: Maximum radius for 4*pi*r*r*local-pseudopot. charge    1.52711
atom: Maximum radius for r*vlocal+2*Zval:    1.28155
GHOST: No ghost state for L =  0
GHOST: No ghost state for L =  1
GHOST: No ghost state for L =  2

KBgen: Kleinman-Bylander projectors: 
   l= 0   rc=  1.452513   el= -0.467311   Ekb= -1.940806   kbcos= -0.353010
   l= 1   rc=  1.752576   el=  0.001430   Ekb= -0.484365   kbcos= -0.024070
   l= 2   rc=  1.774652   el=  0.002365   Ekb= -0.503986   kbcos= -0.001615

KBgen: Total number of  Kleinman-Bylander projectors:    9
atom: -------------------------------------------------------------------------

atom: SANKEY-TYPE ORBITALS:
atom: Selected multiple-zeta basis: split     

SPLIT: Orbitals with angular momentum L= 0

SPLIT: Basis orbitals for state 1s

SPLIT: PAO cut-off radius determined from an
SPLIT: energy shift=  0.020000 Ry

   izeta = 1
                 lambda =    1.000000
                     rc =    4.828263
                 energy =   -0.449360
                kinetic =    0.925772
    potential(screened) =   -1.375132
       potential(ionic) =   -1.911259

   izeta = 2
                 rmatch =    3.854947
              splitnorm =    0.150000
                 energy =   -0.336131
                kinetic =    1.498125
    potential(screened) =   -1.834256
       potential(ionic) =   -2.406171

POLgen: Perturbative polarization orbital with L=  1

POLgen: Polarization orbital for state 1s

   izeta = 1
                     rc =    4.828263
                 energy =    0.707058
                kinetic =    1.398648
    potential(screened) =   -0.691590
       potential(ionic) =   -1.171958
atom: Total number of Sankey-type orbitals:  5

atm_pop: Valence configuration (for local Pseudopot. screening):
 1s( 1.00)                                                            
Vna: chval, zval:    1.00000   1.00000

Vna:  Cut-off radius for the neutral-atom potential:   4.828263

atom: _________________________________________________________________________

<basis_specs>
===============================================================================
C.ca2                Z=   6    Mass=  12.010        Charge= 0.17977+309
Lmxo=1 Lmxkb= 3    BasisType=split      Semic=F
L=0  Nsemic=0  Cnfigmx=2
          n=1  nzeta=2  polorb=0
            splnorm:   0.15000    
               vcte:    0.0000    
               rinn:    0.0000    
               qcoe:    0.0000    
               qyuk:    0.0000    
               qwid:   0.10000E-01
                rcs:    0.0000      0.0000    
            lambdas:    1.0000      1.0000    
L=1  Nsemic=0  Cnfigmx=2
          n=1  nzeta=2  polorb=1
            splnorm:   0.15000    
               vcte:    0.0000    
               rinn:    0.0000    
               qcoe:    0.0000    
               qyuk:    0.0000    
               qwid:   0.10000E-01
                rcs:    0.0000      0.0000    
            lambdas:    1.0000      1.0000    
-------------------------------------------------------------------------------
L=0  Nkbl=1  erefs: 0.17977+309
L=1  Nkbl=1  erefs: 0.17977+309
L=2  Nkbl=1  erefs: 0.17977+309
L=3  Nkbl=1  erefs: 0.17977+309
===============================================================================
</basis_specs>

atom: Called for C.ca2                 (Z =   6)

read_vps: Pseudopotential generation method:
read_vps: ATM3.3.2  Troullier-Martins                       
Total valence charge:    4.00000

xc_check: Exchange-correlation functional:
xc_check: Ceperley-Alder
V l=0 = -2*Zval/r beyond r=  1.5227
V l=1 = -2*Zval/r beyond r=  1.5227
V l=2 = -2*Zval/r beyond r=  1.5227
V l=3 = -2*Zval/r beyond r=  1.5038
All V_l potentials equal beyond r=  1.5227
This should be close to max(r_c) in ps generation
All pots = -2*Zval/r beyond r=  1.5227

VLOCAL1: 99.0% of the norm of Vloc inside     18.722 Ry
VLOCAL1: 99.9% of the norm of Vloc inside     42.668 Ry
atom: Maximum radius for 4*pi*r*r*local-pseudopot. charge    1.83678
atom: Maximum radius for r*vlocal+2*Zval:    1.58088
GHOST: No ghost state for L =  0
GHOST: No ghost state for L =  1
GHOST: No ghost state for L =  2
GHOST: No ghost state for L =  3

KBgen: Kleinman-Bylander projectors: 
   l= 0   rc=  1.769164   el= -1.002383   Ekb=  4.944706   kbcos=  0.320005
   l= 1   rc=  1.769164   el= -0.398438   Ekb= -4.111874   kbcos= -0.367023
   l= 2   rc=  2.107589   el=  0.002326   Ekb= -1.050436   kbcos= -0.009341
   l= 3   rc=  2.358593   el=  0.003420   Ekb= -0.444500   kbcos= -0.001214

KBgen: Total number of  Kleinman-Bylander projectors:   16
atom: -------------------------------------------------------------------------

atom: SANKEY-TYPE ORBITALS:
atom: Selected multiple-zeta basis: split     

SPLIT: Orbitals with angular momentum L= 0

SPLIT: Basis orbitals for state 2s

SPLIT: PAO cut-off radius determined from an
SPLIT: energy shift=  0.020000 Ry

   izeta = 1
                 lambda =    1.000000
                     rc =    4.191849
                 energy =   -0.984359
                kinetic =    0.881234
    potential(screened) =   -1.865594
       potential(ionic) =   -5.477335

   izeta = 2
                 rmatch =    3.431921
              splitnorm =    0.150000
                 energy =   -0.853663
                kinetic =    1.298382
    potential(screened) =   -2.152045
       potential(ionic) =   -5.997528

SPLIT: Orbitals with angular momentum L= 1

SPLIT: Basis orbitals for state 2p

SPLIT: PAO cut-off radius determined from an
SPLIT: energy shift=  0.020000 Ry

   izeta = 1
                 lambda =    1.000000
                     rc =    4.870301
                 energy =   -0.378923
                kinetic =    2.540340
    potential(screened) =   -2.919263
       potential(ionic) =   -6.428536

   izeta = 2
                 rmatch =    3.475094
              splitnorm =    0.150000
                 energy =   -0.214881
                kinetic =    3.815219
    potential(screened) =   -4.030100
       potential(ionic) =   -7.921348

POLgen: Perturbative polarization orbital with L=  2

POLgen: Polarization orbital for state 2p

   izeta = 1
                     rc =    4.870301
                 energy =    1.281120
                kinetic =    2.631157
    potential(screened) =   -1.350037
       potential(ionic) =   -4.295491
atom: Total number of Sankey-type orbitals: 13

atm_pop: Valence configuration (for local Pseudopot. screening):
 2s( 2.00)                                                            
 2p( 2.00)                                                            
Vna: chval, zval:    4.00000   4.00000

Vna:  Cut-off radius for the neutral-atom potential:   4.870301

atom: _________________________________________________________________________

prinput: Basis input ----------------------------------------------------------

PAO.BasisType split     

%block ChemicalSpeciesLabel
    1    1 H.ca                    # Species index, atomic number, species label
    2    6 C.ca2                   # Species index, atomic number, species label
%endblock ChemicalSpeciesLabel

%block PAO.Basis                 # Define Basis set
H.ca                  1                    # Species label, number of l-shells
 n=1   0   2 P   1                   # n, l, Nzeta, Polarization, NzetaPol
   4.828      3.855   
   1.000      1.000   
C.ca2                 2                    # Species label, number of l-shells
 n=2   0   2                         # n, l, Nzeta 
   4.192      3.432   
   1.000      1.000   
 n=2   1   2 P   1                   # n, l, Nzeta, Polarization, NzetaPol
   4.870      3.475   
   1.000      1.000   
%endblock PAO.Basis

prinput: ----------------------------------------------------------------------

Dumping basis to NetCDF file H.ca.ion.nc
Dumping basis to NetCDF file C.ca2.ion.nc
coor:   Atomic-coordinates input format  =     Cartesian coordinates
coor:                                          (in Angstroms)

siesta: WARNING: XV file not found

siesta: Atomic coordinates (Bohr) and species
siesta:     21.82593  11.73580  18.89727  1        1
siesta:     20.31431  15.54251  18.89727  2        2
siesta:     26.24151  10.63269  18.89727  1        3
siesta:     22.25770  13.77432  18.89727  2        4
siesta:     24.81734  14.46947  18.89727  2        5
siesta:     20.94939  18.17200  18.89727  2        6
siesta:     23.52567  18.92352  18.89727  2        7
siesta:     22.24590  23.38084  18.89727  2        8
siesta:     30.72429   9.50325  18.89727  1        9
siesta:     26.74673  12.65781  18.89727  2       10
siesta:     29.28848  13.34958  18.89727  2       11
siesta:     25.46871  17.08828  18.89727  2       12
siesta:     28.04028  17.81892  18.89727  2       13
siesta:     24.17744  21.52995  18.89727  2       14
siesta:     26.75776  22.26880  18.89727  2       15
siesta:     22.89509  25.98485  18.89727  2       16
siesta:     25.47462  26.72523  18.89727  2       17
siesta:     24.19003  31.18221  18.89727  2       18
siesta:     31.24451  11.52202  18.89727  2       19
siesta:     33.72777  12.23250  18.89727  2       20
siesta:     29.96684  15.95978  18.89727  2       21
siesta:     32.54969  16.67800  18.89727  2       22
siesta:     28.69152  20.42113  18.89727  2       23
siesta:     31.27507  21.14879  18.89727  2       24
siesta:     27.40713  24.87330  18.89727  2       25
siesta:     29.98745  25.60920  18.89727  2       26
siesta:     26.12292  29.32901  18.89727  2       27
siesta:     28.70169  30.06794  18.89727  2       28
siesta:     24.83786  33.78561  18.89727  2       29
siesta:     27.41657  34.52657  18.89727  2       30
siesta:     26.13290  38.98880  18.89727  2       31
siesta:     35.18871  10.74964  18.89727  1       32
siesta:     34.45982  14.80349  18.89727  2       33
siesta:     33.20081  19.29285  18.89727  2       34
siesta:     35.78225  20.02809  18.89727  2       35
siesta:     31.92140  23.75535  18.89727  2       36
siesta:     34.49881  24.49288  18.89727  2       37
siesta:     30.63478  28.21315  18.89727  2       38
siesta:     33.21400  28.95209  18.89727  2       39
siesta:     29.34909  32.67193  18.89727  2       40
siesta:     31.92824  33.41080  18.89727  2       41
siesta:     28.06414  37.13155  18.89727  2       42
siesta:     30.64169  37.86877  18.89727  2       43
siesta:     26.78095  41.59603  18.89727  2       44
siesta:     29.36233  42.33151  18.89727  2       45
siesta:     28.10399  46.82063  18.89727  2       46
siesta:     24.16023  47.55894  18.89727  1       47
siesta:     36.42991  22.63542  18.89727  2       48
siesta:     35.14659  27.09757  18.89727  2       49
siesta:     37.72533  27.83832  18.89727  2       50
siesta:     33.86129  31.55633  18.89727  2       51
siesta:     36.44010  32.29528  18.89727  2       52
siesta:     32.57563  36.01470  18.89727  2       53
siesta:     35.15579  36.75089  18.89727  2       54
siesta:     31.28789  40.47556  18.89727  2       55
siesta:     33.87150  41.20345  18.89727  2       56
siesta:     30.01415  44.94638  18.89727  2       57
siesta:     32.59692  45.66455  18.89727  2       58
siesta:     38.37300  30.44179  18.89727  2       59
siesta:     37.08819  34.89897  18.89727  2       60
siesta:     39.66781  35.63890  18.89727  2       61
siesta:     35.80520  39.35548  18.89727  2       62
siesta:     38.38569  40.09387  18.89727  2       63
siesta:     34.52331  43.80551  18.89727  2       64
siesta:     37.09498  44.53597  18.89727  2       65
siesta:     28.62480  48.80643  18.89727  1       66
siesta:     40.31701  38.24280  18.89727  2       67
siesta:     39.03770  42.70029  18.89727  2       68
siesta:     41.61401  43.45184  18.89727  2       69
siesta:     33.10832  47.67635  18.89727  1       70
siesta:     42.24943  46.08141  18.89727  2       71
siesta:     37.52272  46.57369  18.89727  1       72

siesta: System type = chain     

initatomlists: Number of atoms, orbitals, and projectors:     72   872  1096

siesta: ******************** Simulation parameters ****************************
siesta:
siesta: The following are some of the parameters of the simulation.
siesta: A complete list of the parameters used, including default values,
siesta: can be found in file out.fdf
siesta:
redata: Spin configuration                          = collinear
redata: Number of spin components                   = 2
redata: Time-Reversal Symmetry                      = T
redata: Spin-spiral                                 = F
redata: Long output                                 =   F
redata: Number of Atomic Species                    =        2
redata: Charge density info will appear in .RHO file
redata: Write Mulliken Pop.                         = Atomic and Orbital charges
redata: Mesh Cutoff                                 =   400.0000 Ry
redata: Net charge of the system                    =     0.0000 |e|
redata: Min. number of SCF Iter                     =        0
redata: Max. number of SCF Iter                     =     3000
redata: SCF convergence failure will abort job
redata: SCF mix quantity                            = Hamiltonian
redata: Mix DM or H after convergence               =   F
redata: Recompute H after scf cycle                 =   F
redata: Mix DM in first SCF step                    =   T
redata: Write Pulay info on disk                    =   F
redata: New DM Mixing Weight                        =     0.1000
redata: New DM Occupancy tolerance                  = 0.000000000001
redata: No kicks to SCF
redata: DM Mixing Weight for Kicks                  =     0.5000
redata: Require Harris convergence for SCF          =   F
redata: Harris energy tolerance for SCF             =     0.000100 eV
redata: Require DM convergence for SCF              =   T
redata: DM tolerance for SCF                        =     0.000010
redata: Require EDM convergence for SCF             =   F
redata: EDM tolerance for SCF                       =     0.001000 eV
redata: Require H convergence for SCF               =   T
redata: Hamiltonian tolerance for SCF               =     0.001000 eV
redata: Require (free) Energy convergence for SCF   =   F
redata: (free) Energy tolerance for SCF             =     0.000100 eV
redata: Antiferro initial spin density              =   F
redata: Using Saved Data (generic)                  =   F
redata: Use continuation files for DM               =   T
redata: Neglect nonoverlap interactions             =   F
redata: Method of Calculation                       = Diagonalization
redata: Electronic Temperature                      =   299.9869 K
redata: Fix the spin of the system                  =   F
redata: Dynamics option                             = CG coord. optimization
redata: Variable cell                               =   F
redata: Use continuation files for CG               =   F
redata: Max atomic displ per move                   =     0.1058 Ang
redata: Maximum number of CG moves                  =     1000
redata: Force tolerance                             =     0.0020 eV/Ang
mix.SCF: Pulay mixing                            = Pulay
mix.SCF:    Variant                              = stable
mix.SCF:    History steps                        = 7
mix.SCF:    Linear mixing weight                 =     0.100000
mix.SCF:    Mixing weight                        =     0.100000
mix.SCF:    SVD condition                        = 0.1000E-07
mix.SCF: Spin-component mixing                   all
redata: Save all siesta data in one NC              =   F
redata: ***********************************************************************

%block SCF.Mixers
  Pulay
%endblock SCF.Mixers

%block SCF.Mixer.Pulay
  # Mixing method
  method pulay
  variant stable

  # Mixing options
  weight 0.1000
  weight.linear 0.1000
  history 7
%endblock SCF.Mixer.Pulay
 
DM_history_depth set to one: no extrapolation allowed by default for geometry relaxation
Size of DM history Fstack: 1
Total number of electrons:   264.000000
Total ionic charge:   264.000000

* ProcessorY, Blocksize:    4  24


* Orbital distribution balance (max,min):    48    24

k-point displ. along   1 input, could be:     0.00    0.50
 Kpoints in:           51 . Kpoints trimmed:           51

siesta: k-grid: Number of k-points =    51
siesta: k-grid: Cutoff (effective) =    10.000 Ang
siesta: k-grid: Supercell and displacements
siesta: k-grid:  100   0   0      0.000
siesta: k-grid:    0   1   0      0.000
siesta: k-grid:    0   0   1      0.000
 
diag: Algorithm                                     = D&C
diag: Parallel over k                               =   T
diag: Use parallel 2D distribution                  =   T
diag: Parallel block-size                           = 24
diag: Parallel distribution                         =     4 x     6
diag: Used triangular part                          = Lower
diag: Absolute tolerance                            =  0.100E-15
diag: Orthogonalization factor                      =  0.100E-05
diag: Memory factor                                 =  1.0000

superc: Internal auxiliary supercell:     3 x     1 x     1  =       3
superc: Number of atoms, orbitals, and projectors:    216   2616   3288
 
 
ts: **************************************************************
ts: Save H and S matrices                           =    T
ts: Save DM and EDM matrices                        =    F
ts: Fix Hartree potential                           =    F
ts: Only save the overlap matrix S                  =    F
ts: **************************************************************
 
************************ Begin: TS CHECKS AND WARNINGS ************************
************************ End: TS CHECKS AND WARNINGS **************************


                     ====================================
                        Begin CG opt. move =      0
                     ====================================

superc: Internal auxiliary supercell:     3 x     1 x     1  =       3
superc: Number of atoms, orbitals, and projectors:    216   2616   3288

outcell: Unit cell vectors (Ang):
        8.870000    0.000000    0.000000
        0.000000   50.000000    0.000000
        0.000000    0.000000   20.000000

outcell: Cell vector modules (Ang)   :    8.870000   50.000000   20.000000
outcell: Cell angles (23,13,12) (deg):     90.0000     90.0000     90.0000
outcell: Cell volume (Ang**3)        :   8870.0000
<dSpData1D:S at geom step 0
  <sparsity:sparsity for geom step 0
    nrows_g=872 nrows=48 sparsity=.0362 nnzs=27556, refcount: 7>
  <dData1D:(new from dSpData1D) n=27556, refcount: 1>
refcount: 1>
new_DM -- step:     1
Initializing Density Matrix...
 
Attempting to read DM from file... Failed...
DM filled with atomic data (user-defined):
<dSpData2D:DM initialized from atoms
  <sparsity:sparsity for geom step 0
    nrows_g=872 nrows=48 sparsity=.0362 nnzs=27556, refcount: 8>
  <dData2D:DM n=27556 m=2, refcount: 1>
refcount: 1>

initDM: Initial spin polarization (Qup-Qdown) =   -0.000000

No. of atoms with KB's overlaping orbs in proc 0. Max # of overlaps:      53     217
New grid distribution:   1
           1       1:   54    1:   80    1:   21
           2       1:   54    1:   80   22:   42
           3       1:   54    1:   80   43:   63
           4       1:   54    1:   80   64:   84
           5       1:   54    1:   80   85:  105
           6       1:   54    1:   80  106:  125
           7       1:   54   81:  160    1:   21
           8       1:   54   81:  160   22:   42
           9       1:   54   81:  160   43:   63
          10       1:   54   81:  160   64:   84
          11       1:   54   81:  160   85:  105
          12       1:   54   81:  160  106:  125
          13       1:   54  161:  240    1:   21
          14       1:   54  161:  240   22:   42
          15       1:   54  161:  240   43:   63
          16       1:   54  161:  240   64:   84
          17       1:   54  161:  240   85:  105
          18       1:   54  161:  240  106:  125
          19       1:   54  241:  320    1:   21
          20       1:   54  241:  320   22:   42
          21       1:   54  241:  320   43:   63
          22       1:   54  241:  320   64:   84
          23       1:   54  241:  320   85:  105
          24       1:   54  241:  320  106:  125

InitMesh: MESH =   108 x   640 x   250 =    17280000
InitMesh: (bp) =    54 x   320 x   125 =     2160000
InitMesh: Mesh cutoff (required, used) =   400.000   409.734 Ry
ExtMesh (bp) on 0 =   118 x   148 x    89 =     1554296
New grid distribution:   2
           1       1:   54    1:   49    1:   63
           2       1:   54  110:  129   68:  125
           3       1:   54   70:   79    1:   63
           4       1:   54   50:   69   64:   67
           5       1:   54    1:   49   64:  125
           6       1:   54   80:   99   60:   63
           7       1:   54   80:   99    1:   59
           8       1:   54  130:  139    1:   63
           9       1:   54  110:  129    1:   59
          10       1:   54  100:  109    1:   63
          11       1:   54   80:   99   68:  125
          12       1:   54   50:   69   60:   63
          13       1:   54  140:  320    1:   58
          14       1:   54   50:   69   68:  125
          15       1:   54  100:  109   64:  125
          16       1:   54  110:  129   60:   63
          17       1:   54  140:  320   68:  125
          18       1:   54  140:  320   59:   63
          19       1:   54   70:   79   64:  125
          20       1:   54  110:  129   64:   67
          21       1:   54   50:   69    1:   59
          22       1:   54  140:  320   64:   67
          23       1:   54  130:  139   64:  125
          24       1:   54   80:   99   64:   67
New grid distribution:   3
           1       1:   54    1:   36    1:   63
           2       1:   54   37:   61    1:   55
           3       1:   54   62:   74    1:   63
           4       1:   54   75:  100   64:   71
           5       1:   54    1:   36   64:  125
           6       1:   54   75:  100   56:   63
           7       1:   54  114:  138    1:   55
           8       1:   54  139:  151    1:   63
           9       1:   54   75:  100    1:   55
          10       1:   54   37:   61   72:  125
          11       1:   54  101:  113    1:   63
          12       1:   54   37:   61   64:   71
          13       1:   54  152:  320    1:   55
          14       1:   54   62:   74   64:  125
          15       1:   54  152:  320   56:   63
          16       1:   54   37:   61   56:   63
          17       1:   54  152:  320   71:  125
          18       1:   54  114:  138   72:  125
          19       1:   54  139:  151   64:  125
          20       1:   54  114:  138   64:   71
          21       1:   54   75:  100   72:  125
          22       1:   54  152:  320   64:   70
          23       1:   54  101:  113   64:  125
          24       1:   54  114:  138   56:   63
Setting up quadratic distribution...
ExtMesh (bp) on 0 =   118 x   117 x   131 =     1808586
PhiOnMesh: Number of (b)points on node 0 =               166698
PhiOnMesh: nlist on node 0 =               705365

stepf: Fermi-Dirac step function

siesta: Program's energy decomposition (eV):
siesta: Ebs     =     -3106.899454
siesta: Eions   =     16508.186845
siesta: Ena     =      3452.844815
siesta: Ekin    =      7365.382056
siesta: Enl     =      -973.283359
siesta: Eso     =         0.000000
siesta: Eldau   =         0.000000
siesta: DEna    =      -290.521261
siesta: DUscf   =        27.972744
siesta: DUext   =         0.000000
siesta: Enegf   =         0.000000
siesta: Exc     =     -3130.789230
siesta: eta*DQ  =         0.000000
siesta: Emadel  =         0.000000
siesta: Emeta   =         0.000000
siesta: Emolmec =         0.000000
siesta: Ekinion =         0.000000
siesta: Eharris =    -10054.392929
siesta: Etot    =    -10056.581079
siesta: FreeEng =    -10056.595095

        iscf     Eharris(eV)        E_KS(eV)     FreeEng(eV)     dDmax    Ef(eV) dHmax(eV)
   scf:    1   -10054.392929   -10056.581079   -10056.595095  0.966943 -5.420245  5.706703
timer: Routine,Calls,Time,% = IterSCF        1      18.717  82.13
   scf:    2   -10059.385213   -10058.038592   -10058.051876  0.011596 -5.117318  4.304558
   scf:    3   -10062.645645   -10060.707116   -10060.720008  0.037228 -4.110323  2.072677
   scf:    4   -10061.551160   -10061.215094   -10061.227644  0.024908 -3.674475  0.626793
   scf:    5   -10061.257386   -10061.241489   -10061.253974  0.003253 -3.669971  0.487684
   scf:    6   -10061.308401   -10061.280103   -10061.292093  0.004979 -3.676344  0.334988
   scf:    7   -10061.278948   -10061.288286   -10061.299813  0.006762 -3.677278  0.407151
   scf:    8   -10061.296225   -10061.300849   -10061.311490  0.006586 -3.680218  0.222266
   scf:    9   -10061.300179   -10061.303423   -10061.313408  0.004457 -3.675757  0.194405
   scf:   10   -10061.306830   -10061.306038   -10061.315524  0.002106 -3.681448  0.064780
   scf:   11   -10061.308229   -10061.307134   -10061.316167  0.001424 -3.682583  0.052023
   scf:   12   -10061.311316   -10061.309141   -10061.317183  0.002559 -3.685566  0.033375
   scf:   13   -10061.312482   -10061.310733   -10061.317819  0.002413 -3.685433  0.021530
   scf:   14   -10061.311177   -10061.310954   -10061.317890  0.000371 -3.685460  0.019854
   scf:   15   -10061.313206   -10061.312032   -10061.318181  0.001955 -3.685711  0.012203
   scf:   16   -10061.312661   -10061.312342   -10061.318248  0.000622 -3.685844  0.009191
   scf:   17   -10061.312984   -10061.312657   -10061.318302  0.000666 -3.685871  0.006053
   scf:   18   -10061.313053   -10061.312852   -10061.318327  0.000414 -3.685694  0.003776
   scf:   19   -10061.313075   -10061.312963   -10061.318337  0.000228 -3.685589  0.002553
   scf:   20   -10061.313230   -10061.313095   -10061.318346  0.000296 -3.685687  0.003214
   scf:   21   -10061.313113   -10061.313104   -10061.318347  0.000031 -3.685678  0.002538
   scf:   22   -10061.313351   -10061.313226   -10061.318350  0.000241 -3.685795  0.001534
   scf:   23   -10061.313229   -10061.313228   -10061.318350  0.000022 -3.685780  0.001189
   scf:   24   -10061.313263   -10061.313245   -10061.318351  0.000054 -3.685748  0.000701
   scf:   25   -10061.313310   -10061.313278   -10061.318351  0.000057 -3.685738  0.000379
   scf:   26   -10061.313298   -10061.313288   -10061.318351  0.000021 -3.685744  0.000279
   scf:   27   -10061.313298   -10061.313293   -10061.318351  0.000013 -3.685743  0.000210
   scf:   28   -10061.313315   -10061.313304   -10061.318351  0.000027 -3.685732  0.000084
   scf:   29   -10061.313309   -10061.313307   -10061.318351  0.000006 -3.685730  0.000071

SCF Convergence by DM+H criterion
max |DM_out - DM_in|         :     0.0000056678
max |H_out - H_in|      (eV) :     0.0000711683
SCF cycle converged after 29 iterations

Using DM_out to compute the final energy and forces
No. of atoms with KB's overlaping orbs in proc 0. Max # of overlaps:      53     217

siesta: E_KS(eV) =           -10061.3133

siesta: E_KS - E_eggbox =    -10061.3133

siesta: Total spin polarization (Qup-Qdown) =    0.007556

siesta: Atomic forces (eV/Ang):
----------------------------------------
   Tot    0.019873    0.011430   -0.000000
----------------------------------------
   Max    4.516871
   Res    0.466814    sqrt( Sum f_i^2 / 3N )
----------------------------------------
   Max    4.516871    constrained

Stress-tensor-Voigt (kbar):        1.59        0.26        0.01        0.07        0.00        0.00
(Free)E + p*V (eV/cell)   -10064.7489
Target enthalpy (eV/cell)   -10061.3184
 
mulliken: Atomic and Orbital Populations:

mulliken: Spin UP 

Species: H.ca                
Atom  Qatom  Qorb
               1s      1s      1Ppy    1Ppz    1Ppx    
   1  0.624   0.409   0.159   0.025   0.017   0.014
   3  0.626   0.422   0.150   0.024   0.017   0.012
   9  0.625   0.422   0.149   0.024   0.018   0.013
  32  0.622   0.408   0.157   0.018   0.019   0.020
  47  0.630   0.404   0.166   0.019   0.020   0.020
  66  0.626   0.417   0.152   0.024   0.020   0.013
  70  0.625   0.416   0.151   0.024   0.021   0.012
  72  0.623   0.404   0.159   0.025   0.021   0.014

Species: C.ca2               
Atom  Qatom  Qorb
               2s      2s      2py     2pz     2px     2py     2pz     2px     
               2Pdxy   2Pdyz   2Pdz2   2Pdxz   2Pdx2-y2
   2  1.993   0.242   0.248   0.222   0.387   0.225   0.252   0.083   0.254
              0.023   0.015   0.002   0.014   0.024
   4  1.852   0.185   0.273   0.084   0.364   0.248   0.343   0.058   0.237
              0.016   0.005   0.001   0.016   0.022
   5  1.978   0.233   0.251   0.216   0.376   0.214   0.257   0.089   0.263
              0.024   0.015   0.002   0.014   0.025
   6  1.990   0.249   0.244   0.225   0.383   0.230   0.252   0.078   0.250
              0.024   0.016   0.002   0.015   0.024
   7  2.003   0.247   0.245   0.231   0.388   0.228   0.250   0.082   0.252
              0.023   0.015   0.002   0.016   0.024
   8  2.002   0.247   0.245   0.229   0.388   0.229   0.251   0.082   0.251
              0.023   0.016   0.002   0.016   0.024
  10  1.851   0.185   0.274   0.082   0.366   0.251   0.343   0.057   0.235
              0.017   0.005   0.001   0.016   0.021
  11  1.977   0.235   0.250   0.215   0.377   0.209   0.256   0.088   0.267
              0.025   0.014   0.002   0.015   0.024
  12  1.993   0.248   0.244   0.224   0.383   0.226   0.254   0.081   0.253
              0.024   0.015   0.002   0.016   0.024
  13  2.004   0.247   0.246   0.230   0.387   0.228   0.252   0.083   0.253
              0.024   0.015   0.002   0.016   0.024
  14  1.995   0.247   0.245   0.228   0.383   0.228   0.251   0.080   0.251
              0.023   0.016   0.002   0.016   0.024
  15  2.003   0.247   0.245   0.229   0.389   0.229   0.251   0.082   0.251
              0.023   0.015   0.002   0.015   0.024
  16  1.996   0.247   0.245   0.229   0.384   0.228   0.251   0.080   0.251
              0.023   0.016   0.002   0.016   0.024
  17  2.003   0.247   0.245   0.229   0.389   0.228   0.251   0.082   0.251
              0.023   0.016   0.002   0.016   0.024
  18  2.003   0.247   0.245   0.229   0.389   0.228   0.251   0.082   0.251
              0.023   0.016   0.002   0.016   0.024
  19  1.863   0.176   0.277   0.084   0.374   0.236   0.343   0.068   0.245
              0.018   0.004   0.001   0.016   0.021
  20  1.896   0.174   0.280   0.159   0.397   0.159   0.294   0.074   0.301
              0.024   0.009   0.001   0.009   0.015
  21  1.986   0.249   0.243   0.225   0.379   0.227   0.253   0.079   0.251
              0.024   0.015   0.002   0.016   0.024
  22  2.004   0.248   0.246   0.228   0.390   0.228   0.252   0.082   0.254
              0.023   0.015   0.002   0.015   0.024
  23  1.989   0.247   0.244   0.229   0.380   0.228   0.251   0.079   0.251
              0.024   0.016   0.002   0.016   0.024
  24  2.003   0.247   0.245   0.229   0.389   0.229   0.251   0.082   0.251
              0.023   0.015   0.002   0.015   0.024
  25  1.995   0.247   0.245   0.229   0.384   0.228   0.251   0.080   0.251
              0.023   0.016   0.002   0.016   0.024
  26  2.002   0.247   0.245   0.229   0.389   0.229   0.251   0.082   0.251
              0.023   0.016   0.002   0.016   0.024
  27  1.998   0.247   0.245   0.229   0.385   0.228   0.251   0.081   0.251
              0.023   0.016   0.002   0.016   0.024
  28  2.002   0.247   0.245   0.229   0.389   0.229   0.251   0.082   0.251
              0.023   0.016   0.002   0.016   0.024
  29  1.998   0.247   0.245   0.229   0.385   0.228   0.251   0.081   0.251
              0.023   0.016   0.002   0.016   0.024
  30  2.004   0.247   0.245   0.229   0.390   0.229   0.251   0.082   0.251
              0.023   0.016   0.002   0.016   0.024
  31  2.014   0.247   0.245   0.228   0.397   0.230   0.252   0.084   0.251
              0.023   0.016   0.002   0.016   0.024
  33  1.950   0.246   0.243   0.214   0.361   0.230   0.256   0.074   0.246
              0.024   0.015   0.002   0.016   0.024
  34  1.987   0.248   0.244   0.228   0.379   0.229   0.250   0.078   0.250
              0.023   0.016   0.002   0.016   0.024
  35  2.004   0.247   0.245   0.230   0.390   0.229   0.251   0.081   0.251
              0.023   0.016   0.002   0.015   0.024
  36  1.997   0.247   0.245   0.229   0.385   0.228   0.251   0.080   0.251
              0.023   0.016   0.002   0.016   0.024
  37  2.002   0.247   0.245   0.229   0.388   0.229   0.251   0.082   0.251
              0.023   0.016   0.002   0.016   0.024
  38  1.998   0.247   0.245   0.229   0.386   0.229   0.251   0.081   0.251
              0.023   0.016   0.002   0.016   0.024
  39  2.002   0.247   0.245   0.229   0.389   0.229   0.251   0.082   0.251
              0.023   0.016   0.002   0.016   0.024
  40  1.998   0.247   0.245   0.229   0.385   0.229   0.251   0.081   0.251
              0.023   0.016   0.002   0.016   0.024
  41  2.004   0.247   0.245   0.229   0.390   0.228   0.251   0.082   0.251
              0.023   0.016   0.002   0.016   0.024
  42  1.997   0.247   0.245   0.229   0.385   0.229   0.251   0.080   0.251
              0.023   0.016   0.002   0.017   0.024
  43  2.010   0.247   0.246   0.229   0.394   0.229   0.252   0.083   0.251
              0.024   0.015   0.002   0.016   0.024
  44  1.996   0.247   0.244   0.229   0.383   0.226   0.250   0.081   0.253
              0.023   0.017   0.002   0.017   0.024
  45  2.010   0.247   0.245   0.224   0.395   0.229   0.254   0.084   0.251
              0.024   0.015   0.002   0.015   0.024
  46  1.910   0.178   0.282   0.084   0.422   0.243   0.346   0.065   0.233
              0.017   0.004   0.001   0.014   0.021
  48  1.997   0.248   0.245   0.229   0.386   0.229   0.251   0.080   0.250
              0.023   0.016   0.002   0.016   0.024
  49  1.997   0.247   0.245   0.229   0.385   0.229   0.251   0.081   0.251
              0.023   0.016   0.002   0.016   0.024
  50  2.002   0.247   0.245   0.229   0.389   0.229   0.251   0.082   0.251
              0.023   0.016   0.002   0.016   0.024
  51  1.998   0.247   0.245   0.229   0.385   0.228   0.251   0.081   0.251
              0.023   0.016   0.002   0.016   0.024
  52  2.004   0.247   0.245   0.229   0.390   0.229   0.251   0.082   0.251
              0.023   0.016   0.002   0.016   0.024
  53  1.998   0.247   0.245   0.229   0.385   0.228   0.250   0.081   0.251
              0.023   0.016   0.002   0.016   0.024
  54  2.006   0.247   0.246   0.229   0.390   0.228   0.252   0.083   0.251
              0.024   0.016   0.002   0.016   0.024
  55  1.996   0.247   0.245   0.230   0.383   0.228   0.250   0.081   0.251
              0.023   0.016   0.002   0.016   0.024
  56  2.004   0.247   0.245   0.224   0.390   0.227   0.256   0.083   0.252
              0.024   0.015   0.002   0.015   0.024
  57  1.967   0.239   0.247   0.212   0.370   0.216   0.256   0.083   0.258
              0.024   0.015   0.002   0.020   0.025
  58  1.962   0.186   0.280   0.084   0.455   0.256   0.344   0.070   0.230
              0.017   0.004   0.001   0.015   0.021
  59  1.998   0.247   0.245   0.229   0.385   0.228   0.251   0.081   0.251
              0.023   0.016   0.002   0.016   0.024
  60  1.997   0.247   0.245   0.229   0.385   0.228   0.251   0.081   0.251
              0.023   0.016   0.002   0.016   0.024
  61  2.003   0.247   0.245   0.229   0.389   0.229   0.251   0.082   0.251
              0.023   0.016   0.002   0.016   0.024
  62  1.996   0.247   0.245   0.230   0.383   0.228   0.250   0.081   0.251
              0.023   0.016   0.002   0.016   0.024
  63  2.009   0.247   0.245   0.226   0.395   0.228   0.253   0.083   0.251
              0.024   0.015   0.002   0.015   0.024
  64  1.968   0.237   0.247   0.215   0.368   0.218   0.255   0.084   0.256
              0.024   0.016   0.002   0.021   0.024
  65  1.965   0.186   0.280   0.087   0.454   0.255   0.343   0.071   0.232
              0.016   0.004   0.001   0.015   0.021
  67  1.997   0.247   0.245   0.229   0.385   0.228   0.251   0.080   0.251
              0.023   0.016   0.002   0.017   0.024
  68  1.981   0.243   0.246   0.219   0.376   0.226   0.253   0.080   0.252
              0.023   0.017   0.002   0.020   0.024
  69  2.020   0.245   0.248   0.212   0.408   0.234   0.256   0.089   0.249
              0.024   0.015   0.002   0.016   0.024
  71  1.875   0.168   0.284   0.146   0.398   0.170   0.303   0.060   0.286
              0.023   0.011   0.001   0.010   0.014

mulliken: Qtot =      132.004

mulliken: Spin DOWN 

Species: H.ca                
Atom  Qatom  Qorb
               1s      1s      1Ppy    1Ppz    1Ppx    
   1  0.623   0.405   0.159   0.025   0.021   0.014
   3  0.624   0.418   0.149   0.024   0.021   0.012
   9  0.624   0.420   0.148   0.023   0.020   0.013
  32  0.622   0.409   0.157   0.018   0.018   0.020
  47  0.630   0.403   0.166   0.019   0.021   0.020
  66  0.627   0.419   0.152   0.024   0.018   0.014
  70  0.626   0.421   0.151   0.024   0.017   0.012
  72  0.624   0.408   0.160   0.025   0.017   0.014

Species: C.ca2               
Atom  Qatom  Qorb
               2s      2s      2py     2pz     2px     2py     2pz     2px     
               2Pdxy   2Pdyz   2Pdz2   2Pdxz   2Pdx2-y2
   2  1.981   0.243   0.246   0.222   0.378   0.224   0.251   0.081   0.252
              0.023   0.017   0.002   0.020   0.024
   4  1.961   0.184   0.279   0.086   0.444   0.250   0.345   0.076   0.239
              0.016   0.005   0.001   0.016   0.022
   5  1.967   0.233   0.248   0.215   0.367   0.213   0.255   0.086   0.261
              0.024   0.016   0.002   0.022   0.025
   6  2.009   0.249   0.245   0.225   0.397   0.230   0.252   0.082   0.250
              0.024   0.015   0.002   0.015   0.024
   7  1.997   0.247   0.245   0.230   0.383   0.228   0.250   0.081   0.252
              0.023   0.016   0.002   0.016   0.024
   8  1.998   0.247   0.245   0.229   0.385   0.228   0.251   0.081   0.251
              0.023   0.016   0.002   0.016   0.024
  10  1.958   0.183   0.279   0.083   0.444   0.252   0.345   0.075   0.237
              0.017   0.004   0.001   0.016   0.021
  11  1.966   0.235   0.248   0.214   0.368   0.208   0.255   0.086   0.265
              0.025   0.015   0.002   0.021   0.024
  12  2.003   0.248   0.245   0.224   0.390   0.227   0.254   0.083   0.253
              0.024   0.015   0.002   0.015   0.024
  13  1.997   0.247   0.245   0.229   0.382   0.228   0.251   0.081   0.252
              0.024   0.016   0.002   0.016   0.024
  14  2.006   0.247   0.245   0.229   0.391   0.228   0.252   0.083   0.251
              0.023   0.016   0.002   0.016   0.024
  15  1.998   0.247   0.245   0.229   0.385   0.228   0.251   0.081   0.251
              0.023   0.016   0.002   0.016   0.024
  16  2.005   0.247   0.245   0.229   0.390   0.229   0.251   0.082   0.251
              0.023   0.016   0.002   0.016   0.024
  17  1.998   0.247   0.245   0.229   0.386   0.228   0.251   0.081   0.251
              0.023   0.016   0.002   0.016   0.024
  18  1.997   0.247   0.245   0.229   0.385   0.228   0.251   0.081   0.251
              0.023   0.016   0.002   0.016   0.024
  19  1.912   0.175   0.280   0.085   0.410   0.237   0.344   0.076   0.245
              0.018   0.004   0.001   0.016   0.021
  20  1.883   0.174   0.279   0.158   0.387   0.158   0.293   0.072   0.300
              0.024   0.011   0.001   0.011   0.015
  21  2.010   0.249   0.245   0.226   0.396   0.228   0.253   0.084   0.252
              0.024   0.014   0.002   0.015   0.024
  22  1.996   0.248   0.244   0.227   0.383   0.228   0.251   0.080   0.253
              0.023   0.017   0.002   0.017   0.024
  23  2.010   0.247   0.246   0.229   0.394   0.228   0.252   0.084   0.252
              0.024   0.016   0.002   0.016   0.024
  24  1.998   0.247   0.245   0.229   0.385   0.229   0.251   0.080   0.251
              0.023   0.016   0.002   0.017   0.024
  25  2.004   0.247   0.245   0.229   0.390   0.228   0.251   0.082   0.251
              0.023   0.016   0.002   0.016   0.024
  26  1.998   0.247   0.245   0.229   0.386   0.229   0.251   0.081   0.251
              0.023   0.016   0.002   0.016   0.024
  27  2.002   0.247   0.245   0.229   0.389   0.228   0.251   0.082   0.251
              0.023   0.016   0.002   0.016   0.024
  28  1.998   0.247   0.245   0.229   0.386   0.229   0.251   0.081   0.251
              0.023   0.016   0.002   0.016   0.024
  29  2.002   0.247   0.245   0.229   0.388   0.229   0.251   0.082   0.251
              0.023   0.016   0.002   0.016   0.024
  30  1.997   0.247   0.245   0.229   0.385   0.229   0.251   0.081   0.251
              0.023   0.016   0.002   0.016   0.024
  31  1.988   0.248   0.244   0.228   0.380   0.229   0.251   0.078   0.250
              0.023   0.016   0.002   0.016   0.024
  33  2.021   0.244   0.248   0.215   0.411   0.230   0.257   0.088   0.247
              0.024   0.015   0.002   0.016   0.024
  34  2.014   0.247   0.246   0.229   0.398   0.230   0.251   0.083   0.250
              0.023   0.016   0.002   0.016   0.024
  35  1.998   0.247   0.245   0.230   0.385   0.229   0.250   0.080   0.251
              0.023   0.016   0.002   0.017   0.024
  36  2.004   0.247   0.245   0.229   0.390   0.229   0.251   0.082   0.251
              0.023   0.016   0.002   0.016   0.024
  37  1.998   0.247   0.245   0.229   0.386   0.228   0.251   0.081   0.251
              0.023   0.016   0.002   0.016   0.024
  38  2.002   0.247   0.245   0.229   0.389   0.229   0.251   0.082   0.251
              0.023   0.016   0.002   0.016   0.024
  39  1.998   0.247   0.245   0.229   0.386   0.228   0.251   0.081   0.251
              0.023   0.016   0.002   0.016   0.024
  40  2.003   0.247   0.245   0.229   0.389   0.229   0.251   0.082   0.251
              0.023   0.016   0.002   0.016   0.024
  41  1.996   0.247   0.245   0.229   0.384   0.228   0.251   0.080   0.251
              0.023   0.016   0.002   0.016   0.024
  42  2.003   0.247   0.245   0.229   0.389   0.229   0.251   0.082   0.251
              0.023   0.016   0.002   0.015   0.024
  43  1.990   0.247   0.244   0.228   0.380   0.228   0.251   0.079   0.251
              0.024   0.016   0.002   0.016   0.024
  44  2.004   0.247   0.246   0.229   0.389   0.227   0.251   0.082   0.254
              0.023   0.015   0.002   0.015   0.024
  45  1.987   0.248   0.244   0.224   0.378   0.229   0.254   0.080   0.250
              0.024   0.015   0.002   0.016   0.024
  46  1.856   0.179   0.279   0.083   0.382   0.242   0.345   0.057   0.232
              0.017   0.004   0.001   0.015   0.021
  48  2.003   0.247   0.245   0.229   0.390   0.229   0.251   0.082   0.250
              0.023   0.016   0.002   0.016   0.024
  49  2.003   0.247   0.245   0.229   0.389   0.229   0.251   0.082   0.251
              0.023   0.016   0.002   0.016   0.024
  50  1.998   0.247   0.245   0.229   0.385   0.229   0.251   0.081   0.251
              0.023   0.016   0.002   0.016   0.024
  51  2.003   0.247   0.245   0.229   0.389   0.229   0.251   0.082   0.251
              0.023   0.016   0.002   0.016   0.024
  52  1.996   0.247   0.245   0.229   0.384   0.228   0.251   0.080   0.251
              0.023   0.016   0.002   0.016   0.024
  53  2.003   0.247   0.245   0.229   0.389   0.229   0.251   0.082   0.251
              0.023   0.015   0.002   0.015   0.024
  54  1.995   0.247   0.245   0.228   0.383   0.228   0.251   0.080   0.251
              0.024   0.016   0.002   0.016   0.024
  55  2.004   0.247   0.245   0.230   0.388   0.229   0.251   0.082   0.252
              0.023   0.015   0.002   0.016   0.024
  56  1.994   0.247   0.245   0.223   0.383   0.227   0.255   0.081   0.252
              0.024   0.015   0.002   0.016   0.024
  57  1.979   0.238   0.249   0.212   0.379   0.217   0.258   0.086   0.260
              0.024   0.015   0.002   0.014   0.025
  58  1.841   0.187   0.274   0.082   0.366   0.254   0.342   0.050   0.228
              0.017   0.004   0.001   0.015   0.021
  59  2.003   0.247   0.245   0.229   0.389   0.229   0.251   0.082   0.251
              0.023   0.016   0.002   0.016   0.024
  60  2.003   0.247   0.245   0.229   0.389   0.229   0.251   0.082   0.251
              0.023   0.016   0.002   0.016   0.024
  61  1.997   0.247   0.245   0.229   0.385   0.229   0.251   0.081   0.251
              0.023   0.016   0.002   0.016   0.024
  62  2.003   0.247   0.245   0.230   0.388   0.229   0.250   0.082   0.251
              0.023   0.015   0.002   0.016   0.024
  63  1.990   0.247   0.244   0.225   0.381   0.228   0.253   0.079   0.251
              0.024   0.016   0.002   0.016   0.024
  64  1.980   0.237   0.250   0.215   0.379   0.219   0.257   0.086   0.258
              0.024   0.015   0.002   0.014   0.024
  65  1.845   0.188   0.273   0.085   0.365   0.253   0.341   0.052   0.230
              0.016   0.005   0.001   0.015   0.021
  67  2.004   0.247   0.245   0.229   0.390   0.229   0.251   0.082   0.251
              0.023   0.016   0.002   0.015   0.024
  68  1.994   0.243   0.248   0.220   0.387   0.227   0.255   0.083   0.254
              0.023   0.015   0.002   0.014   0.024
  69  1.954   0.246   0.243   0.212   0.361   0.233   0.255   0.075   0.248
              0.024   0.016   0.002   0.016   0.024
  71  1.891   0.168   0.285   0.147   0.410   0.171   0.304   0.062   0.287
              0.023   0.009   0.001   0.008   0.014

mulliken: Qtot =      131.996

                     ====================================
                        Begin CG opt. move =      1
                     ====================================

superc: Internal auxiliary supercell:     3 x     1 x     1  =       3
superc: Number of atoms, orbitals, and projectors:    216   2616   3288

outcell: Unit cell vectors (Ang):
        8.870000    0.000000    0.000000
        0.000000   50.000000    0.000000
        0.000000    0.000000   20.000000

outcell: Cell vector modules (Ang)   :    8.870000   50.000000   20.000000
outcell: Cell angles (23,13,12) (deg):     90.0000     90.0000     90.0000
outcell: Cell volume (Ang**3)        :   8870.0000
<dSpData1D:S at geom step 1
  <sparsity:sparsity for geom step 1
    nrows_g=872 nrows=48 sparsity=.0362 nnzs=27556, refcount: 7>
  <dData1D:(new from dSpData1D) n=27556, refcount: 1>
refcount: 1>
new_DM -- step:     2
Re-using DM from previous geometries...
Number of DMs in history: 1
 DM extrapolation coefficients: 
1   1.00000
New DM after history re-use:
<dSpData2D:SpM extrapolated using coords
  <sparsity:sparsity for geom step 1
    nrows_g=872 nrows=48 sparsity=.0362 nnzs=27556, refcount: 8>
  <dData2D:(temp array for extrapolation) n=27556 m=2, refcount: 1>
refcount: 1>
No. of atoms with KB's overlaping orbs in proc 0. Max # of overlaps:      53     217
New grid distribution:   1
           1       1:   54    1:   80    1:   21
           2       1:   54    1:   80   22:   42
           3       1:   54    1:   80   43:   63
           4       1:   54    1:   80   64:   84
           5       1:   54    1:   80   85:  105
           6       1:   54    1:   80  106:  125
           7       1:   54   81:  160    1:   21
           8       1:   54   81:  160   22:   42
           9       1:   54   81:  160   43:   63
          10       1:   54   81:  160   64:   84
          11       1:   54   81:  160   85:  105
          12       1:   54   81:  160  106:  125
          13       1:   54  161:  240    1:   21
          14       1:   54  161:  240   22:   42
          15       1:   54  161:  240   43:   63
          16       1:   54  161:  240   64:   84
          17       1:   54  161:  240   85:  105
          18       1:   54  161:  240  106:  125
          19       1:   54  241:  320    1:   21
          20       1:   54  241:  320   22:   42
          21       1:   54  241:  320   43:   63
          22       1:   54  241:  320   64:   84
          23       1:   54  241:  320   85:  105
          24       1:   54  241:  320  106:  125

InitMesh: MESH =   108 x   640 x   250 =    17280000
InitMesh: (bp) =    54 x   320 x   125 =     2160000
InitMesh: Mesh cutoff (required, used) =   400.000   409.734 Ry
ExtMesh (bp) on 0 =   118 x   148 x    89 =     1554296
New grid distribution:   2
           1       1:   54    1:   49    1:   63
           2       1:   54  110:  129   68:  125
           3       1:   54   70:   79    1:   63
           4       1:   54   50:   69   64:   67
           5       1:   54    1:   49   64:  125
           6       1:   54   80:   99   60:   63
           7       1:   54   80:   99    1:   59
           8       1:   54  130:  139    1:   63
           9       1:   54  110:  129    1:   59
          10       1:   54  100:  109    1:   63
          11       1:   54   80:   99   68:  125
          12       1:   54   50:   69   60:   63
          13       1:   54  140:  320    1:   58
          14       1:   54   50:   69   68:  125
          15       1:   54  100:  109   64:  125
          16       1:   54  110:  129   60:   63
          17       1:   54  140:  320   68:  125
          18       1:   54  140:  320   59:   63
          19       1:   54   70:   79   64:  125
          20       1:   54  110:  129   64:   67
          21       1:   54   50:   69    1:   59
          22       1:   54  140:  320   64:   67
          23       1:   54  130:  139   64:  125
          24       1:   54   80:   99   64:   67
New grid distribution:   3
           1       1:   54    1:   36    1:   63
           2       1:   54   37:   61    1:   55
           3       1:   54   62:   74    1:   63
           4       1:   54   75:  100   64:   71
           5       1:   54    1:   36   64:  125
           6       1:   54   75:  100   56:   63
           7       1:   54  114:  138    1:   55
           8       1:   54  139:  151    1:   63
           9       1:   54   75:  100    1:   55
          10       1:   54   37:   61   72:  125
          11       1:   54  101:  113    1:   63
          12       1:   54   37:   61   64:   71
          13       1:   54  152:  320    1:   55
          14       1:   54   62:   74   64:  125
          15       1:   54  152:  320   56:   63
          16       1:   54   37:   61   56:   63
          17       1:   54  152:  320   71:  125
          18       1:   54  114:  138   72:  125
          19       1:   54  139:  151   64:  125
          20       1:   54  114:  138   64:   71
          21       1:   54   75:  100   72:  125
          22       1:   54  152:  320   64:   70
          23       1:   54  101:  113   64:  125
          24       1:   54  114:  138   56:   63
Setting up quadratic distribution...
ExtMesh (bp) on 0 =   118 x   117 x   131 =     1808586
PhiOnMesh: Number of (b)points on node 0 =               166698
PhiOnMesh: nlist on node 0 =               705384

        iscf     Eharris(eV)        E_KS(eV)     FreeEng(eV)     dDmax    Ef(eV) dHmax(eV)
   scf:    1   -10058.273793   -10060.413941   -10060.423099  0.054330 -3.652420  4.056196
   scf:    2    -9666.420239    -9932.494230    -9932.503506  0.160005 -3.691795 38.575196
   scf:    3   -10089.980053   -10060.498193   -10060.507278  0.142838 -3.676618  3.541202
   scf:    4   -10061.698800   -10061.243326   -10061.252651  0.025360 -3.676856  1.573505
   scf:    5   -10061.502137   -10061.405297   -10061.412178  0.010707 -3.693479  0.596418
   scf:    6   -10061.414482   -10061.432443   -10061.438329  0.006950 -3.700135  0.242394
   scf:    7   -10061.438225   -10061.435766   -10061.441672  0.000573 -3.706791  0.162697
   scf:    8   -10061.437558   -10061.437424   -10061.443398  0.001097 -3.709471  0.026435
   scf:    9   -10061.437228   -10061.437367   -10061.443364  0.000250 -3.709808  0.035627
   scf:   10   -10061.437316   -10061.437409   -10061.443460  0.000475 -3.709954  0.016023
   scf:   11   -10061.437398   -10061.437407   -10061.443469  0.000144 -3.709944  0.004888
   scf:   12   -10061.437390   -10061.437399   -10061.443471  0.000054 -3.709982  0.003260
   scf:   13   -10061.437389   -10061.437394   -10061.443471  0.000027 -3.710010  0.002519
   scf:   14   -10061.437367   -10061.437381   -10061.443474  0.000065 -3.710094  0.001920
   scf:   15   -10061.437354   -10061.437367   -10061.443475  0.000054 -3.710164  0.001365
   scf:   16   -10061.437344   -10061.437356   -10061.443475  0.000043 -3.710221  0.001010
   scf:   17   -10061.437330   -10061.437343   -10061.443476  0.000044 -3.710281  0.000602
   scf:   18   -10061.437335   -10061.437339   -10061.443476  0.000010 -3.710289  0.000483
   scf:   19   -10061.437315   -10061.437327   -10061.443476  0.000034 -3.710300  0.000285
   scf:   20   -10061.437317   -10061.437322   -10061.443476  0.000013 -3.710300  0.000199
   scf:   21   -10061.437311   -10061.437317   -10061.443476  0.000012 -3.710297  0.000174
   scf:   22   -10061.437301   -10061.437309   -10061.443476  0.000016 -3.710297  0.000146
   scf:   23   -10061.437302   -10061.437305   -10061.443476  0.000007 -3.710297  0.000109

SCF Convergence by DM+H criterion
max |DM_out - DM_in|         :     0.0000067448
max |H_out - H_in|      (eV) :     0.0001093304
SCF cycle converged after 23 iterations

Using DM_out to compute the final energy and forces
No. of atoms with KB's overlaping orbs in proc 0. Max # of overlaps:      53     217

siesta: E_KS(eV) =           -10061.4373

siesta: Total spin polarization (Qup-Qdown) =   -0.003232

siesta: Atomic forces (eV/Ang):
----------------------------------------
   Tot    0.018063    0.007126   -0.000000
----------------------------------------
   Max    3.062148
   Res    0.348301    sqrt( Sum f_i^2 / 3N )
----------------------------------------
   Max    3.062148    constrained

Stress-tensor-Voigt (kbar):        0.69        0.64        0.01       -0.22        0.00        0.00
(Free)E + p*V (eV/cell)   -10063.9246
Target enthalpy (eV/cell)   -10061.4435
 
mulliken: Atomic and Orbital Populations:

mulliken: Spin UP 

Species: H.ca                
Atom  Qatom  Qorb
               1s      1s      1Ppy    1Ppz    1Ppx    
   1  0.624   0.409   0.159   0.025   0.017   0.014
   3  0.625   0.422   0.150   0.024   0.017   0.012
   9  0.624   0.421   0.149   0.024   0.018   0.013
  32  0.622   0.408   0.157   0.018   0.019   0.020
  47  0.616   0.410   0.151   0.018   0.017   0.020
  66  0.620   0.423   0.143   0.023   0.018   0.013
  70  0.622   0.420   0.146   0.024   0.020   0.012
  72  0.620   0.406   0.156   0.025   0.020   0.014

Species: C.ca2               
Atom  Qatom  Qorb
               2s      2s      2py     2pz     2px     2py     2pz     2px     
               2Pdxy   2Pdyz   2Pdz2   2Pdxz   2Pdx2-y2
   2  1.992   0.242   0.248   0.222   0.387   0.225   0.252   0.083   0.254
              0.023   0.015   0.002   0.014   0.024
   4  1.854   0.185   0.273   0.084   0.365   0.248   0.343   0.058   0.237
              0.016   0.005   0.001   0.016   0.022
   5  1.977   0.233   0.251   0.216   0.376   0.214   0.257   0.089   0.263
              0.024   0.015   0.002   0.014   0.025
   6  1.990   0.249   0.244   0.225   0.383   0.230   0.252   0.078   0.250
              0.024   0.016   0.002   0.015   0.024
   7  2.003   0.247   0.245   0.231   0.387   0.228   0.250   0.082   0.252
              0.023   0.015   0.002   0.016   0.024
   8  2.002   0.247   0.245   0.229   0.388   0.229   0.251   0.082   0.251
              0.023   0.016   0.002   0.016   0.024
  10  1.853   0.185   0.274   0.082   0.368   0.251   0.343   0.057   0.236
              0.017   0.005   0.001   0.016   0.021
  11  1.976   0.235   0.250   0.215   0.376   0.209   0.256   0.088   0.267
              0.025   0.014   0.002   0.015   0.024
  12  1.993   0.248   0.244   0.224   0.384   0.226   0.254   0.081   0.253
              0.024   0.015   0.002   0.016   0.024
  13  2.004   0.247   0.246   0.230   0.387   0.228   0.252   0.083   0.253
              0.024   0.015   0.002   0.016   0.024
  14  1.995   0.247   0.245   0.228   0.384   0.228   0.251   0.080   0.251
              0.023   0.016   0.002   0.016   0.024
  15  2.003   0.247   0.245   0.229   0.389   0.229   0.251   0.082   0.251
              0.023   0.015   0.002   0.015   0.024
  16  1.996   0.247   0.245   0.229   0.385   0.228   0.251   0.080   0.251
              0.023   0.016   0.002   0.016   0.024
  17  2.002   0.247   0.245   0.229   0.389   0.228   0.251   0.082   0.251
              0.023   0.016   0.002   0.016   0.024
  18  2.003   0.247   0.245   0.229   0.389   0.228   0.251   0.082   0.251
              0.023   0.016   0.002   0.016   0.024
  19  1.864   0.176   0.277   0.084   0.375   0.236   0.343   0.068   0.245
              0.018   0.004   0.001   0.016   0.021
  20  1.896   0.174   0.280   0.159   0.397   0.159   0.294   0.074   0.301
              0.024   0.009   0.001   0.009   0.015
  21  1.987   0.249   0.243   0.225   0.379   0.227   0.253   0.079   0.251
              0.024   0.015   0.002   0.016   0.024
  22  2.004   0.248   0.246   0.228   0.389   0.228   0.252   0.082   0.254
              0.023   0.015   0.002   0.015   0.024
  23  1.990   0.247   0.244   0.229   0.380   0.228   0.251   0.079   0.251
              0.024   0.016   0.002   0.016   0.024
  24  2.003   0.247   0.245   0.229   0.389   0.229   0.251   0.082   0.251
              0.023   0.016   0.002   0.015   0.024
  25  1.996   0.247   0.245   0.229   0.384   0.228   0.251   0.080   0.251
              0.023   0.016   0.002   0.016   0.024
  26  2.002   0.247   0.245   0.229   0.389   0.229   0.251   0.082   0.251
              0.023   0.016   0.002   0.016   0.024
  27  1.998   0.247   0.245   0.229   0.386   0.228   0.251   0.081   0.251
              0.023   0.016   0.002   0.016   0.024
  28  2.002   0.247   0.245   0.229   0.389   0.229   0.251   0.082   0.251
              0.023   0.016   0.002   0.016   0.024
  29  1.998   0.247   0.245   0.229   0.386   0.228   0.251   0.081   0.251
              0.023   0.016   0.002   0.016   0.024
  30  2.003   0.247   0.245   0.229   0.390   0.229   0.250   0.082   0.251
              0.023   0.016   0.002   0.016   0.024
  31  2.013   0.248   0.245   0.229   0.397   0.230   0.251   0.083   0.250
              0.023   0.016   0.002   0.016   0.024
  33  1.952   0.246   0.243   0.214   0.362   0.230   0.256   0.074   0.246
              0.024   0.015   0.002   0.016   0.024
  34  1.988   0.248   0.244   0.228   0.380   0.229   0.251   0.078   0.250
              0.023   0.016   0.002   0.016   0.024
  35  2.004   0.247   0.245   0.230   0.390   0.229   0.251   0.081   0.251
              0.023   0.016   0.002   0.015   0.024
  36  1.997   0.247   0.245   0.229   0.385   0.228   0.251   0.081   0.251
              0.023   0.016   0.002   0.016   0.024
  37  2.002   0.247   0.245   0.229   0.388   0.229   0.251   0.082   0.251
              0.023   0.016   0.002   0.016   0.024
  38  1.998   0.247   0.245   0.229   0.386   0.228   0.251   0.081   0.251
              0.023   0.016   0.002   0.016   0.024
  39  2.002   0.247   0.245   0.229   0.389   0.229   0.251   0.082   0.251
              0.023   0.016   0.002   0.016   0.024
  40  1.998   0.247   0.245   0.229   0.386   0.228   0.251   0.081   0.251
              0.023   0.016   0.002   0.016   0.024
  41  2.004   0.247   0.245   0.229   0.390   0.228   0.251   0.082   0.251
              0.023   0.016   0.002   0.016   0.024
  42  1.998   0.247   0.245   0.229   0.385   0.228   0.251   0.081   0.251
              0.023   0.016   0.002   0.017   0.024
  43  2.010   0.247   0.246   0.229   0.394   0.228   0.251   0.083   0.251
              0.023   0.016   0.002   0.016   0.024
  44  1.997   0.248   0.244   0.227   0.384   0.229   0.250   0.080   0.252
              0.023   0.017   0.002   0.017   0.024
  45  2.011   0.251   0.244   0.227   0.397   0.229   0.251   0.082   0.251
              0.024   0.014   0.002   0.015   0.023
  46  1.913   0.181   0.276   0.098   0.404   0.231   0.330   0.080   0.253
              0.019   0.004   0.001   0.016   0.021
  48  1.997   0.247   0.245   0.229   0.386   0.229   0.251   0.080   0.250
              0.023   0.016   0.002   0.016   0.024
  49  1.997   0.247   0.245   0.229   0.385   0.229   0.251   0.081   0.251
              0.023   0.016   0.002   0.016   0.024
  50  2.002   0.247   0.245   0.229   0.389   0.229   0.251   0.082   0.251
              0.023   0.016   0.002   0.016   0.024
  51  1.998   0.247   0.245   0.229   0.386   0.228   0.251   0.081   0.251
              0.023   0.016   0.002   0.016   0.024
  52  2.004   0.247   0.245   0.229   0.390   0.229   0.251   0.082   0.251
              0.023   0.016   0.002   0.016   0.024
  53  1.998   0.247   0.245   0.229   0.386   0.228   0.250   0.081   0.251
              0.023   0.016   0.002   0.016   0.024
  54  2.005   0.247   0.245   0.229   0.391   0.228   0.251   0.083   0.251
              0.024   0.016   0.002   0.016   0.024
  55  1.997   0.247   0.245   0.230   0.382   0.228   0.250   0.081   0.253
              0.024   0.016   0.002   0.016   0.024
  56  2.003   0.250   0.244   0.226   0.392   0.228   0.251   0.081   0.252
              0.024   0.014   0.002   0.015   0.024
  57  1.966   0.239   0.247   0.221   0.372   0.207   0.248   0.082   0.264
              0.024   0.014   0.002   0.020   0.024
  58  1.956   0.187   0.277   0.090   0.440   0.250   0.338   0.075   0.240
              0.017   0.004   0.001   0.016   0.021
  59  1.998   0.247   0.245   0.229   0.386   0.228   0.251   0.081   0.251
              0.023   0.016   0.002   0.016   0.024
  60  1.998   0.247   0.245   0.229   0.385   0.228   0.251   0.081   0.251
              0.023   0.016   0.002   0.016   0.024
  61  2.003   0.247   0.245   0.229   0.389   0.229   0.251   0.082   0.251
              0.023   0.016   0.002   0.016   0.024
  62  1.997   0.247   0.245   0.231   0.383   0.227   0.250   0.082   0.252
              0.023   0.016   0.002   0.016   0.024
  63  2.008   0.248   0.245   0.225   0.396   0.230   0.251   0.082   0.251
              0.023   0.015   0.002   0.016   0.024
  64  1.967   0.235   0.248   0.219   0.369   0.213   0.251   0.085   0.261
              0.024   0.015   0.002   0.021   0.025
  65  1.960   0.187   0.277   0.090   0.440   0.250   0.341   0.076   0.239
              0.016   0.005   0.001   0.016   0.022
  67  1.998   0.247   0.245   0.230   0.385   0.228   0.251   0.081   0.251
              0.023   0.016   0.002   0.017   0.024
  68  1.982   0.242   0.246   0.220   0.377   0.226   0.253   0.082   0.251
              0.023   0.017   0.002   0.020   0.024
  69  2.022   0.246   0.247   0.217   0.414   0.229   0.255   0.087   0.246
              0.024   0.015   0.002   0.016   0.023
  71  1.891   0.182   0.273   0.159   0.381   0.167   0.290   0.079   0.296
              0.024   0.012   0.001   0.012   0.015

mulliken: Qtot =      131.998

mulliken: Spin DOWN 

Species: H.ca                
Atom  Qatom  Qorb
               1s      1s      1Ppy    1Ppz    1Ppx    
   1  0.623   0.405   0.159   0.025   0.021   0.014
   3  0.624   0.418   0.149   0.024   0.021   0.012
   9  0.624   0.419   0.148   0.023   0.020   0.013
  32  0.622   0.408   0.157   0.018   0.018   0.020
  47  0.616   0.410   0.151   0.018   0.017   0.020
  66  0.621   0.425   0.143   0.023   0.017   0.013
  70  0.623   0.424   0.146   0.024   0.017   0.012
  72  0.622   0.410   0.157   0.025   0.017   0.014

Species: C.ca2               
Atom  Qatom  Qorb
               2s      2s      2py     2pz     2px     2py     2pz     2px     
               2Pdxy   2Pdyz   2Pdz2   2Pdxz   2Pdx2-y2
   2  1.981   0.243   0.246   0.222   0.378   0.224   0.251   0.081   0.252
              0.023   0.017   0.002   0.020   0.024
   4  1.959   0.184   0.279   0.086   0.443   0.250   0.345   0.075   0.239
              0.016   0.005   0.001   0.016   0.022
   5  1.967   0.233   0.249   0.215   0.367   0.213   0.255   0.086   0.261
              0.024   0.016   0.002   0.021   0.025
   6  2.009   0.249   0.245   0.225   0.396   0.230   0.252   0.082   0.250
              0.024   0.015   0.002   0.015   0.024
   7  1.997   0.247   0.245   0.231   0.383   0.228   0.250   0.081   0.252
              0.023   0.016   0.002   0.016   0.024
   8  1.998   0.247   0.245   0.229   0.385   0.228   0.251   0.081   0.251
              0.023   0.016   0.002   0.016   0.024
  10  1.956   0.183   0.279   0.083   0.442   0.252   0.345   0.074   0.237
              0.017   0.004   0.001   0.016   0.021
  11  1.966   0.235   0.248   0.214   0.368   0.208   0.255   0.086   0.265
              0.025   0.015   0.002   0.021   0.024
  12  2.002   0.248   0.245   0.224   0.390   0.227   0.254   0.083   0.253
              0.024   0.015   0.002   0.015   0.024
  13  1.997   0.247   0.245   0.229   0.382   0.228   0.251   0.082   0.252
              0.024   0.016   0.002   0.016   0.024
  14  2.005   0.247   0.245   0.229   0.391   0.228   0.251   0.082   0.251
              0.023   0.016   0.002   0.016   0.024
  15  1.998   0.247   0.245   0.229   0.385   0.228   0.251   0.081   0.251
              0.023   0.016   0.002   0.016   0.024
  16  2.004   0.247   0.245   0.229   0.390   0.229   0.251   0.082   0.251
              0.023   0.016   0.002   0.016   0.024
  17  1.998   0.247   0.245   0.229   0.386   0.228   0.251   0.081   0.251
              0.023   0.016   0.002   0.016   0.024
  18  1.997   0.247   0.245   0.229   0.385   0.228   0.251   0.081   0.251
              0.023   0.016   0.002   0.016   0.024
  19  1.911   0.175   0.280   0.085   0.409   0.237   0.344   0.076   0.245
              0.018   0.004   0.001   0.016   0.021
  20  1.883   0.174   0.279   0.158   0.387   0.158   0.293   0.072   0.300
              0.024   0.011   0.001   0.011   0.015
  21  2.010   0.249   0.245   0.226   0.395   0.228   0.253   0.084   0.252
              0.024   0.014   0.002   0.015   0.024
  22  1.997   0.248   0.244   0.227   0.383   0.228   0.251   0.080   0.253
              0.023   0.017   0.002   0.017   0.024
  23  2.010   0.247   0.246   0.229   0.394   0.228   0.252   0.084   0.252
              0.024   0.016   0.002   0.016   0.024
  24  1.998   0.247   0.245   0.229   0.385   0.229   0.251   0.081   0.251
              0.023   0.016   0.002   0.017   0.024
  25  2.004   0.247   0.245   0.229   0.390   0.228   0.251   0.082   0.251
              0.023   0.016   0.002   0.016   0.024
  26  1.998   0.247   0.245   0.229   0.386   0.228   0.251   0.081   0.251
              0.023   0.016   0.002   0.016   0.024
  27  2.002   0.247   0.245   0.229   0.388   0.228   0.251   0.082   0.251
              0.023   0.016   0.002   0.016   0.024
  28  1.998   0.247   0.245   0.229   0.386   0.229   0.251   0.081   0.251
              0.023   0.016   0.002   0.016   0.024
  29  2.002   0.247   0.245   0.229   0.388   0.228   0.251   0.082   0.251
              0.023   0.016   0.002   0.016   0.024
  30  1.997   0.247   0.245   0.229   0.385   0.229   0.250   0.080   0.251
              0.023   0.016   0.002   0.016   0.024
  31  1.988   0.248   0.244   0.229   0.380   0.229   0.250   0.078   0.250
              0.023   0.016   0.002   0.016   0.024
  33  2.020   0.244   0.248   0.215   0.410   0.230   0.257   0.088   0.247
              0.024   0.015   0.002   0.016   0.024
  34  2.013   0.247   0.246   0.229   0.397   0.230   0.251   0.083   0.250
              0.023   0.016   0.002   0.016   0.024
  35  1.998   0.247   0.245   0.230   0.385   0.229   0.250   0.080   0.251
              0.023   0.016   0.002   0.017   0.024
  36  2.003   0.247   0.245   0.229   0.390   0.229   0.251   0.082   0.251
              0.023   0.016   0.002   0.016   0.024
  37  1.998   0.247   0.245   0.229   0.386   0.228   0.251   0.081   0.251
              0.023   0.016   0.002   0.016   0.024
  38  2.002   0.247   0.245   0.229   0.389   0.229   0.251   0.082   0.251
              0.023   0.016   0.002   0.016   0.024
  39  1.998   0.247   0.245   0.229   0.386   0.228   0.251   0.081   0.251
              0.023   0.016   0.002   0.016   0.024
  40  2.002   0.247   0.245   0.229   0.389   0.228   0.251   0.082   0.251
              0.023   0.016   0.002   0.016   0.024
  41  1.996   0.247   0.245   0.229   0.384   0.228   0.251   0.080   0.251
              0.023   0.016   0.002   0.016   0.024
  42  2.003   0.247   0.245   0.229   0.389   0.229   0.251   0.082   0.251
              0.023   0.016   0.002   0.015   0.024
  43  1.990   0.248   0.244   0.229   0.380   0.228   0.251   0.079   0.251
              0.023   0.016   0.002   0.016   0.024
  44  2.005   0.248   0.245   0.228   0.390   0.229   0.251   0.081   0.253
              0.023   0.015   0.002   0.015   0.024
  45  1.986   0.251   0.243   0.226   0.380   0.228   0.251   0.077   0.250
              0.024   0.015   0.002   0.016   0.023
  46  1.869   0.181   0.273   0.097   0.372   0.230   0.329   0.073   0.252
              0.019   0.004   0.001   0.017   0.021
  48  2.003   0.247   0.245   0.229   0.390   0.229   0.251   0.082   0.250
              0.023   0.016   0.002   0.016   0.024
  49  2.003   0.247   0.245   0.229   0.389   0.229   0.251   0.082   0.251
              0.023   0.016   0.002   0.016   0.024
  50  1.998   0.247   0.245   0.229   0.385   0.229   0.251   0.081   0.251
              0.023   0.016   0.002   0.016   0.024
  51  2.002   0.247   0.245   0.229   0.389   0.228   0.251   0.082   0.251
              0.023   0.016   0.002   0.016   0.024
  52  1.996   0.247   0.245   0.229   0.384   0.228   0.251   0.080   0.251
              0.023   0.016   0.002   0.016   0.024
  53  2.003   0.247   0.245   0.229   0.389   0.229   0.251   0.082   0.251
              0.023   0.015   0.002   0.015   0.024
  54  1.995   0.247   0.245   0.229   0.383   0.228   0.251   0.080   0.251
              0.024   0.016   0.002   0.016   0.024
  55  2.004   0.247   0.245   0.231   0.387   0.228   0.250   0.083   0.253
              0.024   0.015   0.002   0.016   0.024
  56  1.993   0.250   0.244   0.225   0.385   0.227   0.251   0.079   0.252
              0.024   0.015   0.002   0.016   0.024
  57  1.976   0.239   0.249   0.222   0.381   0.207   0.249   0.085   0.266
              0.024   0.014   0.002   0.015   0.024
  58  1.860   0.189   0.272   0.088   0.370   0.248   0.336   0.059   0.238
              0.017   0.004   0.001   0.016   0.021
  59  2.003   0.247   0.245   0.229   0.389   0.229   0.251   0.082   0.251
              0.023   0.016   0.002   0.016   0.024
  60  2.002   0.247   0.245   0.229   0.388   0.229   0.251   0.082   0.251
              0.023   0.016   0.002   0.016   0.024
  61  1.997   0.247   0.245   0.229   0.385   0.228   0.251   0.081   0.251
              0.024   0.016   0.002   0.016   0.024
  62  2.003   0.247   0.245   0.231   0.387   0.228   0.250   0.083   0.252
              0.023   0.015   0.002   0.016   0.024
  63  1.990   0.249   0.244   0.225   0.383   0.230   0.251   0.078   0.250
              0.023   0.016   0.002   0.016   0.024
  64  1.977   0.235   0.250   0.219   0.378   0.214   0.252   0.087   0.263
              0.024   0.014   0.002   0.015   0.025
  65  1.858   0.188   0.272   0.088   0.365   0.249   0.339   0.060   0.237
              0.016   0.005   0.001   0.016   0.022
  67  2.004   0.247   0.245   0.230   0.389   0.228   0.251   0.082   0.252
              0.023   0.016   0.002   0.015   0.024
  68  1.993   0.242   0.248   0.221   0.386   0.227   0.254   0.085   0.253
              0.023   0.015   0.002   0.014   0.025
  69  1.949   0.248   0.243   0.216   0.362   0.229   0.254   0.073   0.245
              0.023   0.015   0.002   0.016   0.023
  71  1.902   0.182   0.274   0.160   0.390   0.168   0.291   0.081   0.297
              0.024   0.009   0.001   0.010   0.016

mulliken: Qtot =      132.002

                     ====================================
                        Begin CG opt. move =      2
                     ====================================

superc: Internal auxiliary supercell:     3 x     1 x     1  =       3
superc: Number of atoms, orbitals, and projectors:    216   2616   3288

outcell: Unit cell vectors (Ang):
        8.870000    0.000000    0.000000
        0.000000   50.000000    0.000000
        0.000000    0.000000   20.000000

outcell: Cell vector modules (Ang)   :    8.870000   50.000000   20.000000
outcell: Cell angles (23,13,12) (deg):     90.0000     90.0000     90.0000
outcell: Cell volume (Ang**3)        :   8870.0000
<dSpData1D:S at geom step 2
  <sparsity:sparsity for geom step 2
    nrows_g=872 nrows=48 sparsity=.0362 nnzs=27556, refcount: 7>
  <dData1D:(new from dSpData1D) n=27556, refcount: 1>
refcount: 1>
new_DM -- step:     3
Re-using DM from previous geometries...
Number of DMs in history: 1
 DM extrapolation coefficients: 
1   1.00000
New DM after history re-use:
<dSpData2D:SpM extrapolated using coords
  <sparsity:sparsity for geom step 2
    nrows_g=872 nrows=48 sparsity=.0362 nnzs=27556, refcount: 8>
  <dData2D:(temp array for extrapolation) n=27556 m=2, refcount: 1>
refcount: 1>
No. of atoms with KB's overlaping orbs in proc 0. Max # of overlaps:      53     217
New grid distribution:   1
           1       1:   54    1:   80    1:   21
           2       1:   54    1:   80   22:   42
           3       1:   54    1:   80   43:   63
           4       1:   54    1:   80   64:   84
           5       1:   54    1:   80   85:  105
           6       1:   54    1:   80  106:  125
           7       1:   54   81:  160    1:   21
[...]
          5.27   5.36   5.46   5.57   5.66   5.84   5.91   5.93   6.01   6.04
          6.19   6.42   6.43   6.58   6.61   6.65   6.67   6.82   6.87   7.21
          7.46   7.51   7.67   7.83   8.10   8.29   8.33   8.34   8.41   8.42
          8.47   8.50   8.56   8.63   8.73   8.83   8.91   8.97   9.02   9.13
          9.23   9.27   9.36   9.41   9.60   9.64   9.79   9.81   9.83   9.91
          9.97   9.97   9.99  10.16  10.21  10.24  10.31  10.34  10.49  10.50
         10.54  10.63  10.67  10.74  10.74  10.79  10.90  11.00  11.03  11.10
         11.19  11.22  11.27  11.34  11.37  11.38  11.47  11.49  11.62  11.64
         11.66  11.69  11.75  11.79  11.93  11.93  11.94  11.96  12.08  12.09
         12.14  12.27  12.31  12.43  12.44  12.46  12.47  12.47  12.56  12.57
         12.57  12.58  12.58  12.64  12.71  12.72  12.76  12.77  12.78  12.84
         12.86  12.87  12.87  12.90  12.91  13.00  13.02  13.07  13.19  13.27
         13.28  13.31  13.41  13.43  13.47  13.67  13.68  13.78  13.91  13.92
         14.00  14.01  14.12  14.31  14.34  14.37  14.40  14.48  14.59  14.65
         14.93  15.34  15.76  15.78  15.80  15.82  15.97  16.06  16.27  16.27
         16.51  16.54  17.01  17.02  17.39  17.41  17.59  17.62  17.97  17.99
         18.01  18.02  18.03  18.08  18.18  18.18  18.28  18.28  18.28  18.34
         18.35  18.39  18.68  18.73  18.76  18.77  18.79  18.87  18.91  18.92
         18.96  19.05  19.20  19.36  19.38  19.46  19.47  19.49  19.72  19.75
         19.94  19.95  20.02  20.24  20.41  20.47  20.51  20.54  20.59  20.62
         20.65  20.66  20.69  20.87  20.99  21.00  21.07  21.11  21.17  21.17
         21.24  21.24  21.30  21.34  21.37  21.40  21.40  21.43  21.45  21.51
         21.67  21.71  21.72  21.79  21.87  21.92  21.94  21.97  21.98  22.00
         22.02  22.06  22.16  22.30  22.39  22.45  22.55  22.55  22.69  22.71
         22.72  22.73  22.74  22.82  22.85  22.93  22.99  23.00  23.08  23.10
         23.11  23.27  23.45  23.49  23.70  24.03  24.14  24.18  24.40  24.64
         24.72  24.75  24.81  24.98  25.09  25.12  25.33  25.37  25.54  25.57
         25.83  25.88  26.08  26.20  26.22  26.51  26.62  26.72  26.96  27.35
         27.40  27.87  28.31  28.36  28.60  28.84  28.86  29.06  29.75  29.84
         30.11  30.14  30.56  30.69  30.99  31.16  31.19  31.41  31.51  31.58
         31.91  32.24  32.29  32.59  32.63  32.86  33.03  33.29  33.76  33.79
         33.92  34.09  34.37  34.51  34.75  34.78  34.83  34.95  35.19  35.25
         35.40  35.43  35.43  35.58  35.60  35.74  35.75  35.75  35.90  36.10
         36.24  36.30  36.33  36.45  36.61  37.10  37.21  37.37  37.54  37.62
         37.69  37.71  37.86  38.32  39.02  39.11  39.29  39.33  39.59  39.72
         40.60  40.67  41.01  41.28  41.44  41.68  42.26  42.40  42.69  42.78
         43.01  43.17  43.31  43.35  43.38  43.41  43.43  43.93  44.03  44.08
         44.21  44.25  44.53  44.60  44.95  44.98  45.35  45.43  45.65  45.75
         45.82  45.86  45.87  46.07  46.22  46.51  46.53  46.59  46.82  46.98
         47.04  47.14  47.19  47.40  47.68  47.77  47.86  47.96  48.05  48.35
         48.37  48.58  48.64  48.71  48.79  48.95  49.21  49.22  49.28  49.35
         49.38  49.43  49.47  49.51  49.52  49.54  49.65  49.94  50.08  50.17
         50.31  50.46  50.53  50.68  50.69  50.81  50.88  51.04  51.18  51.46
         51.89  51.95  52.24  52.33  52.47  52.52  52.64  52.72  52.78  52.79
         53.02  53.21  53.23  53.26  53.46  53.50  53.75  53.93  54.07  54.15
         54.38  54.38  54.42  54.87  55.14  55.15  55.38  55.43  55.48  55.64
         55.66  56.03  56.20  56.27  56.37  56.47  56.48  56.62  56.65  56.98
         57.69  57.91  57.92  58.04  58.24  58.39  58.54  58.59  59.18  59.19
         59.22  59.30  59.32  59.53  59.84  59.95  59.97  59.99  60.33  60.44
         60.77  60.89  60.95  61.00  61.09  61.20  61.26  61.39  61.67  61.70
         62.43  62.60  62.65  62.73  62.84  62.95  63.91  64.03  64.33  64.36
         64.39  64.59  65.41  65.96  66.52  67.20  67.83  68.03  68.34  68.50
         69.38  69.65  70.38  70.51  70.53  70.62  70.83  71.08  71.26  71.56
         71.66  71.68  71.74  71.81  71.87  71.87  71.95  72.25  72.63  72.86
         72.94  72.96  73.14  73.33  73.46  73.68  73.72  73.82  73.90  73.91
         74.06  74.07  74.18  74.18  74.30  74.35  74.47  74.84  74.99  75.19
         76.11  76.30  76.50  76.81  76.85  76.97  77.23  77.27  79.54  79.68
         79.70  79.77  80.24  81.40  81.43  81.50  81.50  81.58  81.64  81.86
         82.21  82.31  82.83  82.90  83.31  83.93  84.25  84.66  84.72  85.89
         86.08  86.41  87.47  88.06  89.72  89.73  89.98  90.00  91.01  92.03
         92.38  92.41  92.59  94.11  94.63  95.14  96.50  96.91  97.27  97.93
         98.76  99.36 100.12 100.15 100.60 100.67 101.19 101.67 101.76 101.84
        102.52 102.96 103.70 104.23 104.62 105.50 106.38 106.97 108.05 110.27
        110.72 110.85 111.60 112.66 113.54 113.98 114.52 114.87 115.09 115.35
        117.86 118.04 118.27 118.46 118.55 119.45 121.06 121.12 124.27 124.32
        124.69 126.60 127.96 129.45 129.66 130.39 133.54 134.16 134.27 135.16
        136.51 136.58 137.80 137.93 138.07 138.10 138.33 138.40 138.69 138.90
        140.55 141.04 142.21 142.63 143.67 143.80 144.57 144.59 145.21 147.34
        147.38 148.27 149.78 150.33 151.56 154.15 156.12 156.24 173.98 174.25
        199.59 199.77
  51  2 -22.55 -22.54 -22.35 -22.30 -22.03 -21.94 -21.60 -21.46 -21.06 -20.84
        -20.41 -20.12 -19.93 -19.92 -19.72 -19.70 -19.64 -19.46 -19.36 -19.22
        -18.97 -18.95 -18.78 -18.40 -18.37 -18.37 -17.99 -17.83 -17.60 -17.52
        -16.88 -16.85 -16.47 -16.40 -15.82 -15.56 -15.47 -15.42 -15.04 -15.03
        -14.96 -14.76 -14.75 -14.43 -14.32 -14.28 -14.03 -13.90 -13.87 -13.73
        -13.71 -13.47 -13.36 -13.27 -13.20 -13.18 -12.88 -12.64 -12.63 -12.45
        -11.83 -11.83 -11.65 -11.59 -11.37 -11.35 -11.06 -10.89 -10.80 -10.78
        -10.77 -10.76 -10.64 -10.56 -10.53 -10.49 -10.43 -10.30 -10.16 -10.13
        -10.07 -10.07 -10.03 -10.01  -9.95  -9.95  -9.76  -9.75  -9.70  -9.67
         -9.57  -9.51  -9.42  -9.27  -9.08  -9.06  -9.05  -8.82  -8.72  -8.70
         -8.54  -8.45  -8.33  -8.18  -8.17  -8.09  -8.02  -8.00  -7.72  -7.72
         -7.71  -7.68  -7.54  -7.51  -7.49  -7.47  -7.47  -7.22  -7.14  -7.05
         -6.78  -6.69  -6.66  -6.34  -6.22  -6.18  -6.00  -5.83  -5.25  -5.24
         -4.58  -4.55  -2.74  -2.73  -2.11  -2.06  -1.78  -1.61  -1.37  -1.26
         -1.13  -0.82  -0.66  -0.58  -0.21  -0.10   0.10   0.32   0.38   0.40
          0.71   0.72   1.26   1.57   1.98   2.00   2.50   2.52   2.53   2.83
          3.79   3.79   3.85   4.01   4.05   4.15   4.20   4.31   4.39   4.48
          4.64   4.76   4.82   4.82   4.88   4.96   4.97   5.06   5.10   5.15
          5.27   5.36   5.46   5.57   5.66   5.84   5.91   5.93   6.01   6.04
          6.19   6.42   6.43   6.58   6.61   6.65   6.67   6.82   6.87   7.21
          7.46   7.51   7.67   7.83   8.10   8.29   8.33   8.34   8.41   8.42
          8.47   8.50   8.56   8.63   8.73   8.83   8.91   8.97   9.02   9.13
          9.23   9.27   9.36   9.41   9.60   9.64   9.79   9.81   9.83   9.91
          9.97   9.97   9.99  10.16  10.21  10.24  10.31  10.34  10.49  10.50
         10.54  10.63  10.67  10.74  10.74  10.79  10.90  11.00  11.03  11.10
         11.19  11.22  11.27  11.34  11.37  11.38  11.47  11.49  11.62  11.64
         11.66  11.69  11.75  11.79  11.93  11.93  11.94  11.96  12.08  12.09
         12.14  12.27  12.31  12.43  12.44  12.46  12.47  12.47  12.56  12.57
         12.57  12.58  12.58  12.64  12.71  12.72  12.76  12.77  12.78  12.84
         12.86  12.87  12.87  12.90  12.91  13.00  13.02  13.07  13.19  13.27
         13.28  13.31  13.41  13.43  13.47  13.67  13.68  13.78  13.91  13.92
         14.00  14.01  14.12  14.31  14.34  14.37  14.40  14.48  14.59  14.65
         14.93  15.34  15.76  15.79  15.80  15.82  15.97  16.06  16.27  16.27
         16.51  16.54  17.01  17.02  17.39  17.41  17.59  17.62  17.97  17.99
         18.01  18.02  18.03  18.08  18.18  18.18  18.28  18.28  18.28  18.34
         18.35  18.39  18.68  18.73  18.76  18.77  18.79  18.87  18.91  18.92
         18.96  19.05  19.20  19.36  19.38  19.46  19.47  19.49  19.72  19.75
         19.94  19.95  20.02  20.24  20.41  20.47  20.51  20.54  20.59  20.62
         20.65  20.66  20.69  20.87  20.99  21.00  21.07  21.11  21.17  21.17
         21.24  21.24  21.30  21.34  21.37  21.40  21.40  21.43  21.45  21.51
         21.67  21.71  21.72  21.79  21.87  21.92  21.94  21.97  21.98  22.00
         22.02  22.06  22.16  22.30  22.39  22.45  22.55  22.55  22.69  22.71
         22.72  22.73  22.74  22.82  22.85  22.93  22.99  23.00  23.08  23.10
         23.11  23.27  23.45  23.49  23.70  24.03  24.14  24.18  24.40  24.64
         24.72  24.75  24.81  24.98  25.09  25.12  25.33  25.37  25.54  25.57
         25.83  25.88  26.08  26.20  26.22  26.51  26.62  26.72  26.96  27.35
         27.40  27.87  28.31  28.36  28.60  28.84  28.86  29.06  29.75  29.84
         30.11  30.14  30.56  30.69  30.99  31.16  31.19  31.41  31.51  31.58
         31.91  32.24  32.29  32.59  32.63  32.86  33.03  33.29  33.76  33.79
         33.92  34.09  34.37  34.51  34.75  34.78  34.83  34.95  35.19  35.25
         35.40  35.43  35.43  35.58  35.60  35.74  35.75  35.75  35.90  36.10
         36.24  36.30  36.33  36.45  36.61  37.10  37.21  37.37  37.54  37.62
         37.69  37.71  37.86  38.32  39.02  39.11  39.29  39.33  39.59  39.72
         40.60  40.67  41.01  41.28  41.44  41.68  42.26  42.40  42.69  42.78
         43.01  43.17  43.31  43.35  43.38  43.41  43.43  43.93  44.03  44.08
         44.21  44.25  44.53  44.60  44.95  44.98  45.35  45.43  45.66  45.75
         45.82  45.86  45.87  46.07  46.22  46.51  46.53  46.59  46.82  46.97
         47.04  47.14  47.19  47.40  47.68  47.77  47.86  47.96  48.05  48.35
         48.37  48.58  48.64  48.71  48.79  48.95  49.21  49.22  49.28  49.35
         49.38  49.43  49.47  49.51  49.52  49.54  49.65  49.94  50.08  50.17
         50.31  50.46  50.53  50.68  50.69  50.81  50.88  51.04  51.18  51.46
         51.89  51.95  52.24  52.33  52.47  52.52  52.64  52.72  52.78  52.79
         53.02  53.21  53.23  53.26  53.46  53.50  53.75  53.93  54.07  54.15
         54.38  54.38  54.42  54.87  55.14  55.15  55.38  55.43  55.48  55.64
         55.66  56.03  56.20  56.27  56.37  56.47  56.48  56.62  56.65  56.98
         57.69  57.91  57.92  58.04  58.24  58.39  58.54  58.59  59.18  59.18
         59.22  59.30  59.32  59.53  59.84  59.95  59.97  59.99  60.33  60.44
         60.77  60.89  60.95  61.00  61.09  61.20  61.26  61.39  61.67  61.70
         62.43  62.60  62.65  62.73  62.84  62.95  63.91  64.03  64.33  64.36
         64.39  64.59  65.41  65.96  66.52  67.20  67.83  68.03  68.34  68.50
         69.38  69.65  70.38  70.51  70.53  70.62  70.83  71.08  71.26  71.56
         71.66  71.68  71.74  71.81  71.87  71.87  71.95  72.25  72.63  72.86
         72.94  72.96  73.14  73.33  73.46  73.68  73.72  73.82  73.90  73.91
         74.06  74.07  74.18  74.18  74.30  74.35  74.47  74.84  74.99  75.19
         76.11  76.30  76.50  76.81  76.85  76.97  77.23  77.27  79.54  79.68
         79.70  79.77  80.24  81.40  81.43  81.50  81.50  81.58  81.64  81.86
         82.21  82.31  82.83  82.90  83.31  83.93  84.25  84.66  84.72  85.89
         86.08  86.41  87.47  88.06  89.71  89.73  89.98  90.00  91.01  92.03
         92.38  92.41  92.59  94.11  94.63  95.14  96.50  96.91  97.27  97.93
         98.76  99.36 100.12 100.15 100.60 100.67 101.19 101.67 101.76 101.84
        102.52 102.96 103.70 104.23 104.62 105.50 106.38 106.97 108.05 110.27
        110.72 110.85 111.60 112.66 113.54 113.98 114.52 114.87 115.09 115.35
        117.86 118.04 118.27 118.46 118.55 119.45 121.06 121.12 124.27 124.32
        124.69 126.60 127.96 129.45 129.66 130.39 133.54 134.16 134.27 135.16
        136.51 136.58 137.80 137.93 138.07 138.10 138.33 138.40 138.69 138.90
        140.55 141.04 142.21 142.63 143.67 143.80 144.57 144.59 145.21 147.34
        147.38 148.27 149.78 150.33 151.56 154.15 156.12 156.24 173.98 174.25
        199.59 199.77
siesta: Fermi energy =      -3.701179 eV

siesta: Program's energy decomposition (eV):
siesta: Ebs     =     -3329.451903
siesta: Eions   =     16508.186845
siesta: Ena     =      3451.596731
siesta: Ekin    =      7189.752126
siesta: Enl     =      -928.849716
siesta: Eso     =         0.000000
siesta: Eldau   =         0.000000
siesta: DEna    =      -182.792780
siesta: DUscf   =        17.504910
siesta: DUext   =         0.000000
siesta: Enegf   =         0.000000
siesta: Exc     =     -3100.584244
siesta: eta*DQ  =         0.000000
siesta: Emadel  =         0.000000
siesta: Emeta   =         0.000000
siesta: Emolmec =         0.000000
siesta: Ekinion =         0.000000
siesta: Eharris =    -10061.559817
siesta: Etot    =    -10061.559817
siesta: FreeEng =    -10061.565669

siesta: Final energy (eV):
siesta:  Band Struct. =   -3329.451903
siesta:       Kinetic =    7189.752126
siesta:       Hartree =   99210.963765
siesta:       Eldau   =       0.000000
siesta:       Eso     =       0.000000
siesta:    Ext. field =       0.000000
siesta:       Enegf   =       0.000000
siesta:   Exch.-corr. =   -3100.584244
siesta:  Ion-electron = -204887.370422
siesta:       Ion-ion =   91525.678958
siesta:       Ekinion =       0.000000
siesta:         Total =  -10061.559817
siesta:         Fermi =      -3.701179

siesta: Stress tensor (static) (eV/Ang**3):
siesta:     0.000552   -0.000015   -0.000000
siesta:    -0.000015   -0.000012   -0.000000
siesta:    -0.000000   -0.000000    0.000005

siesta: Cell volume =       8870.000000 Ang**3

siesta: Pressure (static):
siesta:                Solid            Molecule  Units
siesta:          -0.00000198         -0.00000201  Ry/Bohr**3
siesta:          -0.00018152         -0.00018420  eV/Ang**3
siesta:          -0.29083416         -0.29512397  kBar
(Free)E+ p_basis*V_orbitals  =      -10040.619687
(Free)Eharris+ p_basis*V_orbitals  =      -10040.619687

siesta: Total spin polarization (Qup-Qdown) =   -0.000015

siesta: Electric dipole (a.u.)  =   -0.000000    0.000247   -0.000000
siesta: Electric dipole (Debye) =   -0.000000    0.000629   -0.000000

Hirshfeld Net Atomic Populations:
Atom #    Qatom  Species
     1    0.026  H.ca                
     2    0.003  C.ca2               
     3    0.029  H.ca                
     4   -0.036  C.ca2               
     5    0.004  C.ca2               
     6    0.000  C.ca2               
     7    0.001  C.ca2               
     8   -0.000  C.ca2               
     9    0.033  H.ca                
    10   -0.035  C.ca2               
    11    0.005  C.ca2               
    12    0.002  C.ca2               
    13    0.000  C.ca2               
    14    0.000  C.ca2               
    15   -0.000  C.ca2               
    16   -0.000  C.ca2               
    17   -0.000  C.ca2               
    18   -0.000  C.ca2               
    19   -0.032  C.ca2               
    20   -0.034  C.ca2               
    21    0.003  C.ca2               
    22    0.000  C.ca2               
    23   -0.000  C.ca2               
    24   -0.000  C.ca2               
    25   -0.000  C.ca2               
    26   -0.000  C.ca2               
    27   -0.000  C.ca2               
    28   -0.000  C.ca2               
    29   -0.000  C.ca2               
    30   -0.000  C.ca2               
    31   -0.001  C.ca2               
    32    0.030  H.ca                
    33    0.005  C.ca2               
    34   -0.001  C.ca2               
    35   -0.001  C.ca2               
    36   -0.000  C.ca2               
    37   -0.000  C.ca2               
    38   -0.000  C.ca2               
    39   -0.000  C.ca2               
    40   -0.000  C.ca2               
    41   -0.000  C.ca2               
    42   -0.000  C.ca2               
    43   -0.000  C.ca2               
    44    0.000  C.ca2               
    45    0.003  C.ca2               
    46   -0.032  C.ca2               
    47    0.030  H.ca                
    48    0.000  C.ca2               
    49   -0.000  C.ca2               
    50   -0.000  C.ca2               
    51   -0.000  C.ca2               
    52   -0.000  C.ca2               
    53   -0.000  C.ca2               
    54    0.000  C.ca2               
    55    0.000  C.ca2               
    56    0.002  C.ca2               
    57    0.005  C.ca2               
    58   -0.035  C.ca2               
    59   -0.000  C.ca2               
    60   -0.000  C.ca2               
    61    0.000  C.ca2               
    62    0.001  C.ca2               
    63    0.000  C.ca2               
    64    0.004  C.ca2               
    65   -0.036  C.ca2               
    66    0.033  H.ca                
    67   -0.001  C.ca2               
    68    0.003  C.ca2               
    69    0.005  C.ca2               
    70    0.029  H.ca                
    71   -0.034  C.ca2               
    72    0.026  H.ca                

Voronoi Net Atomic Populations:
Atom #    Qatom  Species
     1    0.005  H.ca                
     2    0.003  C.ca2               
     3    0.005  H.ca                
     4   -0.014  C.ca2               
     5    0.004  C.ca2               
     6    0.002  C.ca2               
     7    0.003  C.ca2               
     8   -0.002  C.ca2               
     9    0.009  H.ca                
    10   -0.012  C.ca2               
    11    0.006  C.ca2               
    12   -0.000  C.ca2               
    13   -0.000  C.ca2               
    14    0.001  C.ca2               
    15   -0.002  C.ca2               
    16   -0.000  C.ca2               
    17    0.002  C.ca2               
    18   -0.002  C.ca2               
    19   -0.008  C.ca2               
    20   -0.012  C.ca2               
    21    0.004  C.ca2               
    22   -0.004  C.ca2               
    23    0.000  C.ca2               
    24    0.002  C.ca2               
    25   -0.001  C.ca2               
    26   -0.002  C.ca2               
    27    0.001  C.ca2               
    28    0.001  C.ca2               
    29   -0.000  C.ca2               
    30   -0.002  C.ca2               
    31    0.002  C.ca2               
    32    0.011  H.ca                
    33    0.007  C.ca2               
    34   -0.003  C.ca2               
    35   -0.003  C.ca2               
    36    0.001  C.ca2               
    37    0.002  C.ca2               
    38   -0.002  C.ca2               
    39    0.000  C.ca2               
    40    0.002  C.ca2               
    41    0.000  C.ca2               
    42   -0.004  C.ca2               
    43   -0.001  C.ca2               
    44    0.006  C.ca2               
    45    0.002  C.ca2               
    46   -0.005  C.ca2               
    47    0.007  H.ca                
    48   -0.003  C.ca2               
    49    0.001  C.ca2               
    50    0.000  C.ca2               
    51   -0.002  C.ca2               
    52   -0.001  C.ca2               
    53    0.001  C.ca2               
    54    0.001  C.ca2               
    55    0.001  C.ca2               
    56    0.003  C.ca2               
    57    0.005  C.ca2               
    58   -0.014  C.ca2               
    59   -0.001  C.ca2               
    60    0.001  C.ca2               
    61    0.002  C.ca2               
    62   -0.001  C.ca2               
    63    0.000  C.ca2               
    64    0.006  C.ca2               
    65   -0.014  C.ca2               
    66    0.007  H.ca                
    67   -0.000  C.ca2               
    68    0.001  C.ca2               
    69   -0.001  C.ca2               
    70    0.005  H.ca                
    71   -0.009  C.ca2               
    72    0.005  H.ca                
>> End of run:  17-APR-2018  18:29:12
Job completed
Job completed
