Siesta Version  : siesta-4.1--852
Architecture    : unknown
Compiler version: ifort (IFORT) 17.0.4 20170411
Compiler flags  : mpiifort -O1 -xHost -mp1 -fpp -ftz -I/scicomp/easybuild/CentOS/7.3.1611/Hasweell/software/imkl/2017.3.196-iimpi-2017b/mkl/include -I/scratch/scicomp/easybuild/CentOS/7.3.1611/Haswell/software/netCDF-Fortran/4.4.4-intel-2017b/include -I/scratch/scicomp/easybuild/CentOS/7.3.1611/Haswell/software/netCDF/4.4.1.1-intel-2017b/include
PP flags        :  -DFC_HAVE_ABORT -DMPI -DCDF -DNCDF -DNCDF_4 -DGRID_DP -DNCDF_PARALLEL
Libraries       : libncdf.a libfdict.a -L/scratch/scicomp/easybuild/CentOS/7.3.1611/Haswell/sofftware/netCDF-Fortran/4.4.4-intel-2017b/lib -lnetcdff -L/scratch/scicomp/easybuild/CentOS/7.3.1611/Haswell/software/cURL/7.56.0-GCCcore-6.4.0/lib -lcurl -L/scratch/scicomp/easybuild/CentOS/7.3.1611/Haswell/software/netCDF/4.4.1.1-intel-2017b/lib64 -lnetcdf -L/scratch/scicomp/easybuild/CentOS/7.3.1611/Haswell/software/HDF5/1.10.1-intel-2017b/lib -lhdf5hl_fortran -lhdf5_fortran -lhdf5_hl -lhdf5 -L/scratch/scicomp/easybuild/CentOS/7.3.1611/Haswell/software/Szip/2.1.1-GCCcore-6.4.0/lib -lsz -L/scratch/scicomp/easybuild/CentOS/7.3.1611/Haswell/software/zlib/1.2.11-GCCcore-6.4.0/lib -lz /scicomp/easybuild/CentOS/7.3.1611/Haswell/software/imkl/2017.3.196-iimpi-2017b/mkl/lib/intel64/libmkl_scalapack_lp64.a -Wl,--start-group /scicomp/easybuild/CentOS/7.3.1611/Haswell/software/imkl/2017.3.196-iimpi-2017b/mkl/lib/intel64/libmkl_intel_lp64.a /scicomp/easybuild/CentOS/7.3.1611/Haswell/software/imkl/2017.3.196-iimpi-2017b/mkl/lib/intel64/libmkl_sequential.a /scicomp/easybuild/CentOS/7.3.1611/Haswell/software/imkl/2017.3.196-iimpi-2017b/mkl/lib/intel64/libmkl_core.a /scicomp/easybuild/CentOS/7.3.1611/Haswell/software/imkl/2017.3.196-iimpi-2017b/mkl/lib/intel64/libmkl_blacs_intelmpi_lp64.a -Wl,--end-group -lpthread -lm -ldl
PARALLEL version
NetCDF support
NetCDF-4 support
NetCDF-4 MPI-IO support

* Running on 24 nodes in parallel
>> Start of run:  18-APR-2018  17:34:40

                           ***********************       
                           *  WELCOME TO SIESTA  *       
                           ***********************       

reinit: Reading from standard input
reinit: Dumped input in INPUT_TMP.27266
************************** Dump of input data file ****************************
SystemTitle molecule
SystemLabel molecule
SolutionMethod     diagon
TS.HS.Save         true
MD.TypeOfRun  CG
MD.TypeOfRun  Broyden
MD.Broyden.Cycle.On.Maxit F
MD.NumCGsteps  1000
MD.MaxForceTol 0.002 eV/Ang
Diag.ParallelOverK true
%block kgrid_Monkhorst_Pack
 100    0    0    0.0
  0    1    0    0.0
  0    0    1    0.0
%endblock kgrid_Monkhorst_Pack
MaxSCFIterations      3000
SCFMustConverge       true
DM.Tolerance          1.d-5
DM.UseSaveDM          true
DM.NumberPulay	      7
DM.MixingWeight       0.1
MD.UseSaveXV          true
XC.functional         LDA
XC.authors     	      CA
MeshCutoff            400. Ry
PAO.BasisSize   DZP
PAO.BasisType   split
%block ChemicalSpeciesLabel
    1   1 H.ca
    2   6 C.ca2
%endblock ChemicalSpeciesLabel
%include STRUCT.fdf
SpinPolarized   true
#FixSpin  true
#Spin.Fix true
#Spin.Total 0
#TotalSpin  0
%block DM.InitSpin
16   1.
11  -1.
%endblock DM.InitSpin
WriteMullikenPop 1
WriteHirshfeldPop true
WriteVoronoiPop true
WriteEigenvalues true
WriteWaveFunctions true
************************** End of input data file *****************************

reinit: -----------------------------------------------------------------------
reinit: System Name: 
reinit: -----------------------------------------------------------------------
reinit: System Label: molecule
reinit: -----------------------------------------------------------------------

initatom: Reading input for the pseudopotentials and atomic orbitals ----------
Species number:   1 Atomic number:    1 Label: H.ca
Species number:   2 Atomic number:    6 Label: C.ca2
 
Ground state valence configuration:   1s01
Reading pseudopotential information in formatted form from H.ca.psf

Pseudopotential generated from a relativistic atomic calculation

Valence configuration for pseudopotential generation:
1s( 1.00) rc: 1.31
2p( 0.00) rc: 1.31
3d( 0.00) rc: 0.37
4f( 0.00) rc: 1.31
Ground state valence configuration:   2s02  2p02
Reading pseudopotential information in formatted form from C.ca2.psf

Pseudopotential generated from a relativistic atomic calculation

Valence configuration for pseudopotential generation:
2s( 2.00) rc: 1.54
2p( 2.00) rc: 1.54
3d( 0.00) rc: 1.54
4f( 0.00) rc: 1.54
For H.ca, standard SIESTA heuristics set lmxkb to 2
 (one more than the basis l, including polarization orbitals).
Use PS.lmax or PS.KBprojectors blocks to override.
For C.ca2, standard SIESTA heuristics set lmxkb to 3
 (one more than the basis l, including polarization orbitals).
Use PS.lmax or PS.KBprojectors blocks to override.

<basis_specs>
===============================================================================
H.ca                 Z=   1    Mass=  1.0100        Charge= 0.17977+309
Lmxo=0 Lmxkb= 2    BasisType=split      Semic=F
L=0  Nsemic=0  Cnfigmx=1
          n=1  nzeta=2  polorb=1
            splnorm:   0.15000    
               vcte:    0.0000    
               rinn:    0.0000    
               qcoe:    0.0000    
               qyuk:    0.0000    
               qwid:   0.10000E-01
                rcs:    0.0000      0.0000    
            lambdas:    1.0000      1.0000    
-------------------------------------------------------------------------------
L=0  Nkbl=1  erefs: 0.17977+309
L=1  Nkbl=1  erefs: 0.17977+309
L=2  Nkbl=1  erefs: 0.17977+309
===============================================================================
</basis_specs>

atom: Called for H.ca                  (Z =   1)

read_vps: Pseudopotential generation method:
read_vps: ATM3.3.2  Troullier-Martins                       
Total valence charge:    1.00000

xc_check: Exchange-correlation functional:
xc_check: Ceperley-Alder
V l=0 = -2*Zval/r beyond r=  1.2977
V l=1 = -2*Zval/r beyond r=  1.2815
V l=2 = -2*Zval/r beyond r=  1.1307
All V_l potentials equal beyond r=  1.2977
This should be close to max(r_c) in ps generation
All pots = -2*Zval/r beyond r=  1.2977

VLOCAL1: 99.0% of the norm of Vloc inside     25.776 Ry
VLOCAL1: 99.9% of the norm of Vloc inside     58.745 Ry
atom: Maximum radius for 4*pi*r*r*local-pseudopot. charge    1.52711
atom: Maximum radius for r*vlocal+2*Zval:    1.28155
GHOST: No ghost state for L =  0
GHOST: No ghost state for L =  1
GHOST: No ghost state for L =  2

KBgen: Kleinman-Bylander projectors: 
   l= 0   rc=  1.452513   el= -0.467311   Ekb= -1.940806   kbcos= -0.353010
   l= 1   rc=  1.752576   el=  0.001430   Ekb= -0.484365   kbcos= -0.024070
   l= 2   rc=  1.774652   el=  0.002365   Ekb= -0.503986   kbcos= -0.001615

KBgen: Total number of  Kleinman-Bylander projectors:    9
atom: -------------------------------------------------------------------------

atom: SANKEY-TYPE ORBITALS:
atom: Selected multiple-zeta basis: split     

SPLIT: Orbitals with angular momentum L= 0

SPLIT: Basis orbitals for state 1s

SPLIT: PAO cut-off radius determined from an
SPLIT: energy shift=  0.020000 Ry

   izeta = 1
                 lambda =    1.000000
                     rc =    4.828263
                 energy =   -0.449360
                kinetic =    0.925772
    potential(screened) =   -1.375132
       potential(ionic) =   -1.911259

   izeta = 2
                 rmatch =    3.854947
              splitnorm =    0.150000
                 energy =   -0.336131
                kinetic =    1.498125
    potential(screened) =   -1.834256
       potential(ionic) =   -2.406171

POLgen: Perturbative polarization orbital with L=  1

POLgen: Polarization orbital for state 1s

   izeta = 1
                     rc =    4.828263
                 energy =    0.707058
                kinetic =    1.398648
    potential(screened) =   -0.691590
       potential(ionic) =   -1.171958
atom: Total number of Sankey-type orbitals:  5

atm_pop: Valence configuration (for local Pseudopot. screening):
 1s( 1.00)                                                            
Vna: chval, zval:    1.00000   1.00000

Vna:  Cut-off radius for the neutral-atom potential:   4.828263

atom: _________________________________________________________________________

<basis_specs>
===============================================================================
C.ca2                Z=   6    Mass=  12.010        Charge= 0.17977+309
Lmxo=1 Lmxkb= 3    BasisType=split      Semic=F
L=0  Nsemic=0  Cnfigmx=2
          n=1  nzeta=2  polorb=0
            splnorm:   0.15000    
               vcte:    0.0000    
               rinn:    0.0000    
               qcoe:    0.0000    
               qyuk:    0.0000    
               qwid:   0.10000E-01
                rcs:    0.0000      0.0000    
            lambdas:    1.0000      1.0000    
L=1  Nsemic=0  Cnfigmx=2
          n=1  nzeta=2  polorb=1
            splnorm:   0.15000    
               vcte:    0.0000    
               rinn:    0.0000    
               qcoe:    0.0000    
               qyuk:    0.0000    
               qwid:   0.10000E-01
                rcs:    0.0000      0.0000    
            lambdas:    1.0000      1.0000    
-------------------------------------------------------------------------------
L=0  Nkbl=1  erefs: 0.17977+309
L=1  Nkbl=1  erefs: 0.17977+309
L=2  Nkbl=1  erefs: 0.17977+309
L=3  Nkbl=1  erefs: 0.17977+309
===============================================================================
</basis_specs>

atom: Called for C.ca2                 (Z =   6)

read_vps: Pseudopotential generation method:
read_vps: ATM3.3.2  Troullier-Martins                       
Total valence charge:    4.00000

xc_check: Exchange-correlation functional:
xc_check: Ceperley-Alder
V l=0 = -2*Zval/r beyond r=  1.5227
V l=1 = -2*Zval/r beyond r=  1.5227
V l=2 = -2*Zval/r beyond r=  1.5227
V l=3 = -2*Zval/r beyond r=  1.5038
All V_l potentials equal beyond r=  1.5227
This should be close to max(r_c) in ps generation
All pots = -2*Zval/r beyond r=  1.5227

VLOCAL1: 99.0% of the norm of Vloc inside     18.722 Ry
VLOCAL1: 99.9% of the norm of Vloc inside     42.668 Ry
atom: Maximum radius for 4*pi*r*r*local-pseudopot. charge    1.83678
atom: Maximum radius for r*vlocal+2*Zval:    1.58088
GHOST: No ghost state for L =  0
GHOST: No ghost state for L =  1
GHOST: No ghost state for L =  2
GHOST: No ghost state for L =  3

KBgen: Kleinman-Bylander projectors: 
   l= 0   rc=  1.769164   el= -1.002383   Ekb=  4.944706   kbcos=  0.320005
   l= 1   rc=  1.769164   el= -0.398438   Ekb= -4.111874   kbcos= -0.367023
   l= 2   rc=  2.107589   el=  0.002326   Ekb= -1.050436   kbcos= -0.009341
   l= 3   rc=  2.358593   el=  0.003420   Ekb= -0.444500   kbcos= -0.001214

KBgen: Total number of  Kleinman-Bylander projectors:   16
atom: -------------------------------------------------------------------------

atom: SANKEY-TYPE ORBITALS:
atom: Selected multiple-zeta basis: split     

SPLIT: Orbitals with angular momentum L= 0

SPLIT: Basis orbitals for state 2s

SPLIT: PAO cut-off radius determined from an
SPLIT: energy shift=  0.020000 Ry

   izeta = 1
                 lambda =    1.000000
                     rc =    4.191849
                 energy =   -0.984359
                kinetic =    0.881234
    potential(screened) =   -1.865594
       potential(ionic) =   -5.477335

   izeta = 2
                 rmatch =    3.431921
              splitnorm =    0.150000
                 energy =   -0.853663
                kinetic =    1.298382
    potential(screened) =   -2.152045
       potential(ionic) =   -5.997528

SPLIT: Orbitals with angular momentum L= 1

SPLIT: Basis orbitals for state 2p

SPLIT: PAO cut-off radius determined from an
SPLIT: energy shift=  0.020000 Ry

   izeta = 1
                 lambda =    1.000000
                     rc =    4.870301
                 energy =   -0.378923
                kinetic =    2.540340
    potential(screened) =   -2.919263
       potential(ionic) =   -6.428536

   izeta = 2
                 rmatch =    3.475094
              splitnorm =    0.150000
                 energy =   -0.214881
                kinetic =    3.815219
    potential(screened) =   -4.030100
       potential(ionic) =   -7.921348

POLgen: Perturbative polarization orbital with L=  2

POLgen: Polarization orbital for state 2p

   izeta = 1
                     rc =    4.870301
                 energy =    1.281120
                kinetic =    2.631157
    potential(screened) =   -1.350037
       potential(ionic) =   -4.295491
atom: Total number of Sankey-type orbitals: 13

atm_pop: Valence configuration (for local Pseudopot. screening):
 2s( 2.00)                                                            
 2p( 2.00)                                                            
Vna: chval, zval:    4.00000   4.00000

Vna:  Cut-off radius for the neutral-atom potential:   4.870301

atom: _________________________________________________________________________

prinput: Basis input ----------------------------------------------------------

PAO.BasisType split     

%block ChemicalSpeciesLabel
    1    1 H.ca                    # Species index, atomic number, species label
    2    6 C.ca2                   # Species index, atomic number, species label
%endblock ChemicalSpeciesLabel

%block PAO.Basis                 # Define Basis set
H.ca                  1                    # Species label, number of l-shells
 n=1   0   2 P   1                   # n, l, Nzeta, Polarization, NzetaPol
   4.828      3.855   
   1.000      1.000   
C.ca2                 2                    # Species label, number of l-shells
 n=2   0   2                         # n, l, Nzeta 
   4.192      3.432   
   1.000      1.000   
 n=2   1   2 P   1                   # n, l, Nzeta, Polarization, NzetaPol
   4.870      3.475   
   1.000      1.000   
%endblock PAO.Basis

prinput: ----------------------------------------------------------------------

Dumping basis to NetCDF file H.ca.ion.nc
Dumping basis to NetCDF file C.ca2.ion.nc
coor:   Atomic-coordinates input format  =     Cartesian coordinates
coor:                                          (in Angstroms)

siesta: WARNING: XV file not found

siesta: Atomic coordinates (Bohr) and species
siesta:     22.67103  10.50308  18.89727  1        1
siesta:     21.16823  14.31197  18.89727  2        2
siesta:     27.09088   9.39513  18.89727  1        3
siesta:     23.10695  12.54075  18.89727  2        4
siesta:     25.66514  13.23305  18.89727  2        5
siesta:     21.80908  16.94780  18.89727  2        6
siesta:     24.38495  17.69509  18.89727  2        7
siesta:     23.14258  22.18364  18.89727  2        8
siesta:     19.20162  22.92938  18.89727  1        9
siesta:     31.57868   8.26136  18.89727  1       10
siesta:     27.59758  11.42004  18.89727  2       11
siesta:     30.13537  12.10790  18.89727  2       12
siesta:     26.31880  15.85644  18.89727  2       13
siesta:     28.89848  16.57314  18.89727  2       14
siesta:     25.04338  20.31693  18.89727  2       15
siesta:     27.63612  21.03077  18.89727  2       16
siesta:     32.09697  10.28070  18.89727  2       17
siesta:     34.57624  10.99148  18.89727  2       18
siesta:     30.81850  14.72283  18.89727  2       19
siesta:     33.41118  15.43685  18.89727  2       20
siesta:     29.55572  19.18029  18.89727  2       21
siesta:     32.13518  19.89736  18.89727  2       22
siesta:     23.66128  24.17722  18.89727  1       23
siesta:     36.03773   9.50920  18.89727  1       24
siesta:     35.31180  13.56998  18.89727  2       25
siesta:     34.06914  18.05886  18.89727  2       26
siesta:     36.64530  18.80566  18.89727  2       27
siesta:     28.14941  23.04346  18.89727  1       28
siesta:     37.28605  21.44152  18.89727  2       29
siesta:     32.56725  21.93566  18.89727  1       30

siesta: System type = chain     

initatomlists: Number of atoms, orbitals, and projectors:     30   326   424

siesta: ******************** Simulation parameters ****************************
siesta:
siesta: The following are some of the parameters of the simulation.
siesta: A complete list of the parameters used, including default values,
siesta: can be found in file out.fdf
siesta:
redata: Spin configuration                          = collinear
redata: Number of spin components                   = 2
redata: Time-Reversal Symmetry                      = T
redata: Spin-spiral                                 = F
redata: Long output                                 =   F
redata: Number of Atomic Species                    =        2
redata: Charge density info will appear in .RHO file
redata: Write Mulliken Pop.                         = Atomic and Orbital charges
redata: Mesh Cutoff                                 =   400.0000 Ry
redata: Net charge of the system                    =     0.0000 |e|
redata: Min. number of SCF Iter                     =        0
redata: Max. number of SCF Iter                     =     3000
redata: SCF convergence failure will abort job
redata: SCF mix quantity                            = Hamiltonian
redata: Mix DM or H after convergence               =   F
redata: Recompute H after scf cycle                 =   F
redata: Mix DM in first SCF step                    =   T
redata: Write Pulay info on disk                    =   F
redata: New DM Mixing Weight                        =     0.1000
redata: New DM Occupancy tolerance                  = 0.000000000001
redata: No kicks to SCF
redata: DM Mixing Weight for Kicks                  =     0.5000
redata: Require Harris convergence for SCF          =   F
redata: Harris energy tolerance for SCF             =     0.000100 eV
redata: Require DM convergence for SCF              =   T
redata: DM tolerance for SCF                        =     0.000010
redata: Require EDM convergence for SCF             =   F
redata: EDM tolerance for SCF                       =     0.001000 eV
redata: Require H convergence for SCF               =   T
redata: Hamiltonian tolerance for SCF               =     0.001000 eV
redata: Require (free) Energy convergence for SCF   =   F
redata: (free) Energy tolerance for SCF             =     0.000100 eV
redata: Antiferro initial spin density              =   F
redata: Using Saved Data (generic)                  =   F
redata: Use continuation files for DM               =   T
redata: Neglect nonoverlap interactions             =   F
redata: Method of Calculation                       = Diagonalization
redata: Electronic Temperature                      =   299.9869 K
redata: Fix the spin of the system                  =   F
redata: Dynamics option                             = CG coord. optimization
redata: Variable cell                               =   F
redata: Use continuation files for CG               =   F
redata: Max atomic displ per move                   =     0.1058 Ang
redata: Maximum number of CG moves                  =     1000
redata: Force tolerance                             =     0.0020 eV/Ang
mix.SCF: Pulay mixing                            = Pulay
mix.SCF:    Variant                              = stable
mix.SCF:    History steps                        = 7
mix.SCF:    Linear mixing weight                 =     0.100000
mix.SCF:    Mixing weight                        =     0.100000
mix.SCF:    SVD condition                        = 0.1000E-07
mix.SCF: Spin-component mixing                   all
redata: Save all siesta data in one NC              =   F
redata: ***********************************************************************

%block SCF.Mixers
  Pulay
%endblock SCF.Mixers

%block SCF.Mixer.Pulay
  # Mixing method
  method pulay
  variant stable

  # Mixing options
  weight 0.1000
  weight.linear 0.1000
  history 7
%endblock SCF.Mixer.Pulay
 
DM_history_depth set to one: no extrapolation allowed by default for geometry relaxation
Size of DM history Fstack: 1
Total number of electrons:    96.000000
Total ionic charge:    96.000000

* ProcessorY, Blocksize:    4  13


* Orbital distribution balance (max,min):    26    13

k-point displ. along   1 input, could be:     0.00    0.50
 Kpoints in:           51 . Kpoints trimmed:           51

siesta: k-grid: Number of k-points =    51
siesta: k-grid: Cutoff (effective) =    10.000 Ang
siesta: k-grid: Supercell and displacements
siesta: k-grid:  100   0   0      0.000
siesta: k-grid:    0   1   0      0.000
siesta: k-grid:    0   0   1      0.000
 
diag: Algorithm                                     = D&C
diag: Parallel over k                               =   T
diag: Use parallel 2D distribution                  =   T
diag: Parallel block-size                           = 13
diag: Parallel distribution                         =     4 x     6
diag: Used triangular part                          = Lower
diag: Absolute tolerance                            =  0.100E-15
diag: Orthogonalization factor                      =  0.100E-05
diag: Memory factor                                 =  1.0000

superc: Internal auxiliary supercell:     3 x     1 x     1  =       3
superc: Number of atoms, orbitals, and projectors:     90    978   1272
 
 
ts: **************************************************************
ts: Save H and S matrices                           =    T
ts: Save DM and EDM matrices                        =    F
ts: Fix Hartree potential                           =    F
ts: Only save the overlap matrix S                  =    F
ts: **************************************************************
 
************************ Begin: TS CHECKS AND WARNINGS ************************
************************ End: TS CHECKS AND WARNINGS **************************


                     ====================================
                        Begin CG opt. move =      0
                     ====================================

superc: Internal auxiliary supercell:     3 x     1 x     1  =       3
superc: Number of atoms, orbitals, and projectors:     90    978   1272

outcell: Unit cell vectors (Ang):
        8.870000    0.000000    0.000000
        0.000000   50.000000    0.000000
        0.000000    0.000000   20.000000

outcell: Cell vector modules (Ang)   :    8.870000   50.000000   20.000000
outcell: Cell angles (23,13,12) (deg):     90.0000     90.0000     90.0000
outcell: Cell volume (Ang**3)        :   8870.0000
<dSpData1D:S at geom step 0
  <sparsity:sparsity for geom step 0
    nrows_g=326 nrows=26 sparsity=.0989 nnzs=10507, refcount: 7>
  <dData1D:(new from dSpData1D) n=10507, refcount: 1>
refcount: 1>
new_DM -- step:     1
Initializing Density Matrix...
 
Attempting to read DM from file... Failed...
DM filled with atomic data (user-defined):
<dSpData2D:DM initialized from atoms
  <sparsity:sparsity for geom step 0
    nrows_g=326 nrows=26 sparsity=.0989 nnzs=10507, refcount: 8>
  <dData2D:DM n=10507 m=2, refcount: 1>
refcount: 1>

initDM: Initial spin polarization (Qup-Qdown) =    0.000000

No. of atoms with KB's overlaping orbs in proc 0. Max # of overlaps:      37     209
New grid distribution:   1
           1       1:   54    1:   80    1:   21
           2       1:   54    1:   80   22:   42
           3       1:   54    1:   80   43:   63
           4       1:   54    1:   80   64:   84
           5       1:   54    1:   80   85:  105
           6       1:   54    1:   80  106:  125
           7       1:   54   81:  160    1:   21
           8       1:   54   81:  160   22:   42
           9       1:   54   81:  160   43:   63
          10       1:   54   81:  160   64:   84
          11       1:   54   81:  160   85:  105
          12       1:   54   81:  160  106:  125
          13       1:   54  161:  240    1:   21
          14       1:   54  161:  240   22:   42
          15       1:   54  161:  240   43:   63
          16       1:   54  161:  240   64:   84
          17       1:   54  161:  240   85:  105
          18       1:   54  161:  240  106:  125
          19       1:   54  241:  320    1:   21
          20       1:   54  241:  320   22:   42
          21       1:   54  241:  320   43:   63
          22       1:   54  241:  320   64:   84
          23       1:   54  241:  320   85:  105
          24       1:   54  241:  320  106:  125

InitMesh: MESH =   108 x   640 x   250 =    17280000
InitMesh: (bp) =    54 x   320 x   125 =     2160000
InitMesh: Mesh cutoff (required, used) =   400.000   409.734 Ry
ExtMesh (bp) on 0 =   118 x   148 x    89 =     1554296
New grid distribution:   2
           1       1:   54    1:   37    1:   63
           2       1:   54   38:   45    1:   58
           3       1:   54   66:   69    1:   63
           4       1:   54   38:   45   59:   63
           5       1:   54   38:   45   68:  125
           6       1:   54   46:   49    1:   63
           7       1:   54   70:  320    1:   58
           8       1:   54   38:   45   64:   67
           9       1:   54   59:   65    1:   59
          10       1:   54   66:   69   64:  125
          11       1:   54   70:  320   69:  125
          12       1:   54   59:   65   60:   63
          13       1:   54    1:   37   64:  125
          14       1:   54   59:   65   68:  125
          15       1:   54   46:   49   64:  125
          16       1:   54   59:   65   64:   67
          17       1:   54   70:  320   64:   68
          18       1:   54   50:   55    1:   59
          19       1:   54   56:   58    1:   63
          20       1:   54   50:   55   64:   67
          21       1:   54   70:  320   59:   63
          22       1:   54   50:   55   68:  125
          23       1:   54   56:   58   64:  125
          24       1:   54   50:   55   60:   63
New grid distribution:   3
           1       1:   54    1:   25    1:   63
           2       1:   54   76:   82    1:   63
           3       1:   54   44:   56   64:   71
           4       1:   54   63:   75   72:  125
           5       1:   54    1:   25   64:  125
           6       1:   54   44:   56   72:  125
           7       1:   54   38:   44    1:   63
           8       1:   54   63:   75   64:   71
           9       1:   54   83:  320   57:   63
          10       1:   54   64:   75    1:   55
          11       1:   54   57:   63    1:   63
          12       1:   54   26:   37   56:   63
          13       1:   54   83:  320    1:   56
          14       1:   54   45:   56    1:   55
          15       1:   54   38:   43   64:  125
          16       1:   54   45:   56   56:   63
          17       1:   54   82:  320   71:  125
          18       1:   54   26:   37    1:   55
          19       1:   54   76:   81   64:  125
          20       1:   54   26:   37   64:   71
          21       1:   54   26:   37   72:  125
          22       1:   54   82:  320   64:   70
          23       1:   54   57:   62   64:  125
          24       1:   54   64:   75   56:   63
Setting up quadratic distribution...
ExtMesh (bp) on 0 =   118 x   105 x   131 =     1623090
PhiOnMesh: Number of (b)points on node 0 =               125874
PhiOnMesh: nlist on node 0 =               349980

stepf: Fermi-Dirac step function

siesta: Program's energy decomposition (eV):
siesta: Ebs     =     -1049.537542
siesta: Eions   =      5773.097056
siesta: Ena     =      1215.729861
siesta: Ekin    =      2613.729974
siesta: Enl     =      -362.855175
siesta: Eso     =         0.000000
siesta: Eldau   =         0.000000
siesta: DEna    =      -117.306895
siesta: DUscf   =        12.575089
siesta: DUext   =         0.000000
siesta: Enegf   =         0.000000
siesta: Exc     =     -1124.685416
siesta: eta*DQ  =         0.000000
siesta: Emadel  =         0.000000
siesta: Emeta   =         0.000000
siesta: Emolmec =         0.000000
siesta: Ekinion =         0.000000
siesta: Eharris =     -3546.288494
siesta: Etot    =     -3535.909619
siesta: FreeEng =     -3535.909621

        iscf     Eharris(eV)        E_KS(eV)     FreeEng(eV)     dDmax    Ef(eV) dHmax(eV)
   scf:    1    -3546.288494    -3535.909619    -3535.909621  0.966883 -5.469801  5.604882
timer: Routine,Calls,Time,% = IterSCF        1       4.624  60.88
   scf:    2    -3537.444431    -3536.701162    -3536.701165  0.011423 -5.143974  4.493325
   scf:    3    -3538.765984    -3538.201163    -3538.201168  0.052703 -3.552028  0.959269
   scf:    4    -3538.412170    -3538.332946    -3538.332951  0.008500 -3.572882  0.561475
   scf:    5    -3538.391897    -3538.370678    -3538.370683  0.013243 -3.448759  0.479806
   scf:    6    -3538.371300    -3538.370990    -3538.370996  0.000128 -3.451100  0.472943
   scf:    7    -3538.400053    -3538.387354    -3538.387360  0.004809 -3.504685  0.235512
   scf:    8    -3538.394417    -3538.391335    -3538.391342  0.004287 -3.542987  0.124007
   scf:    9    -3538.392104    -3538.392063    -3538.392071  0.002704 -3.510360  0.148609
   scf:   10    -3538.396811    -3538.394328    -3538.394336  0.004514 -3.532582  0.032817
   scf:   11    -3538.394646    -3538.394483    -3538.394490  0.000484 -3.532614  0.026020
   scf:   12    -3538.395169    -3538.394797    -3538.394804  0.001182 -3.532942  0.016155
   scf:   13    -3538.395018    -3538.394901    -3538.394909  0.000499 -3.532754  0.011544
   scf:   14    -3538.395255    -3538.395058    -3538.395066  0.000947 -3.532760  0.007750
   scf:   15    -3538.395123    -3538.395089    -3538.395097  0.000241 -3.532930  0.006747
   scf:   16    -3538.395234    -3538.395149    -3538.395157  0.000711 -3.533087  0.004392
   scf:   17    -3538.395178    -3538.395163    -3538.395171  0.000230 -3.533068  0.003619
   scf:   18    -3538.395197    -3538.395177    -3538.395185  0.000350 -3.532981  0.001977
   scf:   19    -3538.395183    -3538.395180    -3538.395188  0.000113 -3.532852  0.001206
   scf:   20    -3538.395182    -3538.395181    -3538.395189  0.000046 -3.532831  0.000939
   scf:   21    -3538.395182    -3538.395181    -3538.395189  0.000047 -3.532830  0.000641
   scf:   22    -3538.395182    -3538.395182    -3538.395190  0.000062 -3.532818  0.000411
   scf:   23    -3538.395180    -3538.395180    -3538.395188  0.000009 -3.532806  0.000336

SCF Convergence by DM+H criterion
max |DM_out - DM_in|         :     0.0000087562
max |H_out - H_in|      (eV) :     0.0003360993
SCF cycle converged after 23 iterations

Using DM_out to compute the final energy and forces
No. of atoms with KB's overlaping orbs in proc 0. Max # of overlaps:      37     209

siesta: E_KS(eV) =            -3538.3952

siesta: E_KS - E_eggbox =     -3538.3952

siesta: Total spin polarization (Qup-Qdown) =    0.000000

siesta: Atomic forces (eV/Ang):
----------------------------------------
   Tot    0.009048   -0.000957    0.000000
----------------------------------------
   Max    4.376250
   Res    0.733792    sqrt( Sum f_i^2 / 3N )
----------------------------------------
   Max    4.376250    constrained

Stress-tensor-Voigt (kbar):        0.40        0.67        0.00       -0.05        0.00        0.00
(Free)E + p*V (eV/cell)    -3540.3655
Target enthalpy (eV/cell)    -3538.3952
 
mulliken: Atomic and Orbital Populations:

mulliken: Spin UP 

Species: H.ca                
Atom  Qatom  Qorb
               1s      1s      1Ppy    1Ppz    1Ppx    
   1  0.623   0.407   0.159   0.025   0.019   0.014
   3  0.625   0.421   0.149   0.024   0.019   0.012
   9  0.629   0.403   0.166   0.019   0.021   0.020
  10  0.625   0.421   0.148   0.024   0.019   0.013
  23  0.626   0.419   0.151   0.024   0.019   0.013
  24  0.623   0.409   0.157   0.018   0.019   0.020
  28  0.626   0.419   0.151   0.024   0.019   0.012
  30  0.623   0.406   0.159   0.025   0.019   0.014

Species: C.ca2               
Atom  Qatom  Qorb
               2s      2s      2py     2pz     2px     2py     2pz     2px     
               2Pdxy   2Pdyz   2Pdz2   2Pdxz   2Pdx2-y2
   2  1.987   0.243   0.247   0.221   0.383   0.226   0.252   0.082   0.252
              0.023   0.016   0.002   0.017   0.024
   4  1.907   0.184   0.276   0.085   0.404   0.249   0.344   0.067   0.238
              0.016   0.005   0.001   0.016   0.022
   5  1.973   0.234   0.249   0.215   0.372   0.214   0.256   0.087   0.261
              0.024   0.015   0.002   0.018   0.025
   6  2.000   0.249   0.244   0.225   0.388   0.228   0.252   0.080   0.252
              0.024   0.015   0.002   0.016   0.024
   7  1.999   0.248   0.244   0.226   0.385   0.229   0.253   0.082   0.251
              0.024   0.015   0.002   0.016   0.024
   8  1.884   0.179   0.280   0.084   0.402   0.243   0.345   0.061   0.232
              0.017   0.004   0.001   0.015   0.021
  11  1.905   0.184   0.276   0.083   0.406   0.251   0.344   0.065   0.237
              0.017   0.004   0.001   0.016   0.021
  12  1.971   0.235   0.249   0.215   0.372   0.209   0.256   0.087   0.266
              0.025   0.014   0.002   0.018   0.024
  13  1.998   0.248   0.245   0.225   0.385   0.227   0.254   0.082   0.253
              0.024   0.015   0.002   0.016   0.024
  14  1.999   0.246   0.245   0.224   0.384   0.227   0.256   0.083   0.253
              0.024   0.015   0.002   0.016   0.024
  15  1.973   0.239   0.248   0.212   0.375   0.216   0.257   0.084   0.258
              0.024   0.015   0.002   0.017   0.025
  16  1.902   0.187   0.277   0.083   0.411   0.255   0.343   0.060   0.229
              0.016   0.004   0.001   0.015   0.021
  17  1.888   0.176   0.278   0.085   0.392   0.236   0.343   0.072   0.245
              0.018   0.004   0.001   0.016   0.021
  18  1.889   0.174   0.279   0.159   0.393   0.159   0.292   0.072   0.300
              0.024   0.010   0.001   0.010   0.015
  19  1.998   0.249   0.244   0.227   0.386   0.228   0.252   0.081   0.251
              0.024   0.015   0.002   0.016   0.024
  20  2.000   0.248   0.245   0.224   0.387   0.228   0.253   0.081   0.253
              0.023   0.016   0.002   0.016   0.024
  21  1.974   0.237   0.249   0.215   0.374   0.218   0.256   0.085   0.257
              0.024   0.015   0.002   0.018   0.024
  22  1.906   0.187   0.277   0.086   0.410   0.254   0.341   0.061   0.231
              0.016   0.005   0.001   0.015   0.022
  25  1.987   0.245   0.245   0.215   0.387   0.230   0.256   0.081   0.247
              0.024   0.015   0.002   0.016   0.024
  26  1.988   0.244   0.246   0.219   0.382   0.228   0.254   0.081   0.252
              0.023   0.016   0.002   0.017   0.024
  27  1.988   0.246   0.245   0.213   0.385   0.233   0.255   0.081   0.248
              0.024   0.015   0.002   0.016   0.024
  29  1.883   0.170   0.284   0.146   0.405   0.172   0.303   0.061   0.285
              0.023   0.009   0.001   0.009   0.014

mulliken: Qtot =       48.000

mulliken: Spin DOWN 

Species: H.ca                
Atom  Qatom  Qorb
               1s      1s      1Ppy    1Ppz    1Ppx    
   1  0.623   0.407   0.159   0.025   0.019   0.014
   3  0.625   0.421   0.149   0.024   0.019   0.012
   9  0.629   0.403   0.166   0.019   0.021   0.020
  10  0.625   0.421   0.148   0.024   0.019   0.013
  23  0.626   0.419   0.151   0.024   0.019   0.013
  24  0.623   0.409   0.157   0.018   0.019   0.020
  28  0.626   0.419   0.151   0.024   0.019   0.012
  30  0.623   0.406   0.159   0.025   0.019   0.014

Species: C.ca2               
Atom  Qatom  Qorb
               2s      2s      2py     2pz     2px     2py     2pz     2px     
               2Pdxy   2Pdyz   2Pdz2   2Pdxz   2Pdx2-y2
   2  1.987   0.243   0.247   0.221   0.383   0.226   0.252   0.081   0.252
              0.023   0.016   0.002   0.017   0.024
   4  1.907   0.184   0.276   0.085   0.404   0.249   0.344   0.067   0.238
              0.016   0.005   0.001   0.016   0.022
   5  1.972   0.234   0.249   0.215   0.372   0.214   0.256   0.087   0.261
              0.024   0.015   0.002   0.018   0.025
   6  2.000   0.249   0.244   0.225   0.388   0.228   0.252   0.080   0.252
              0.024   0.015   0.002   0.016   0.024
   7  1.999   0.248   0.244   0.226   0.385   0.229   0.253   0.082   0.251
              0.024   0.015   0.002   0.016   0.024
   8  1.884   0.179   0.280   0.084   0.402   0.243   0.345   0.061   0.232
              0.017   0.004   0.001   0.015   0.021
  11  1.906   0.184   0.276   0.083   0.406   0.251   0.344   0.065   0.237
              0.017   0.004   0.001   0.016   0.021
  12  1.971   0.235   0.249   0.215   0.372   0.209   0.256   0.087   0.266
              0.025   0.014   0.002   0.018   0.024
  13  1.998   0.248   0.245   0.225   0.385   0.227   0.254   0.082   0.253
              0.024   0.015   0.002   0.016   0.024
  14  1.999   0.246   0.245   0.224   0.384   0.227   0.256   0.083   0.253
              0.024   0.015   0.002   0.016   0.024
  15  1.973   0.239   0.248   0.212   0.375   0.216   0.257   0.084   0.258
              0.024   0.015   0.002   0.017   0.025
  16  1.902   0.187   0.277   0.083   0.411   0.255   0.343   0.060   0.229
              0.016   0.004   0.001   0.015   0.021
  17  1.888   0.176   0.278   0.085   0.393   0.236   0.343   0.072   0.245
              0.018   0.004   0.001   0.016   0.021
  18  1.889   0.174   0.279   0.159   0.393   0.159   0.292   0.072   0.300
              0.024   0.010   0.001   0.010   0.015
  19  1.998   0.249   0.244   0.227   0.386   0.228   0.252   0.081   0.251
              0.024   0.015   0.002   0.016   0.024
  20  2.000   0.248   0.245   0.224   0.387   0.228   0.253   0.081   0.253
              0.023   0.016   0.002   0.016   0.024
  21  1.974   0.237   0.249   0.215   0.374   0.218   0.256   0.085   0.257
              0.024   0.015   0.002   0.018   0.024
  22  1.905   0.187   0.277   0.086   0.410   0.254   0.341   0.061   0.231
              0.016   0.005   0.001   0.015   0.022
  25  1.987   0.245   0.245   0.215   0.387   0.230   0.256   0.081   0.247
              0.024   0.015   0.002   0.016   0.024
  26  1.988   0.244   0.246   0.219   0.382   0.228   0.254   0.081   0.252
              0.023   0.016   0.002   0.017   0.024
  27  1.988   0.246   0.245   0.213   0.385   0.233   0.255   0.081   0.248
              0.024   0.015   0.002   0.016   0.024
  29  1.883   0.170   0.284   0.146   0.405   0.172   0.303   0.061   0.285
              0.023   0.009   0.001   0.009   0.014

mulliken: Qtot =       48.000

                     ====================================
                        Begin CG opt. move =      1
                     ====================================

superc: Internal auxiliary supercell:     3 x     1 x     1  =       3
superc: Number of atoms, orbitals, and projectors:     90    978   1272

outcell: Unit cell vectors (Ang):
        8.870000    0.000000    0.000000
        0.000000   50.000000    0.000000
        0.000000    0.000000   20.000000

outcell: Cell vector modules (Ang)   :    8.870000   50.000000   20.000000
outcell: Cell angles (23,13,12) (deg):     90.0000     90.0000     90.0000
outcell: Cell volume (Ang**3)        :   8870.0000
<dSpData1D:S at geom step 1
  <sparsity:sparsity for geom step 1
    nrows_g=326 nrows=26 sparsity=.0989 nnzs=10507, refcount: 7>
  <dData1D:(new from dSpData1D) n=10507, refcount: 1>
refcount: 1>
new_DM -- step:     2
Re-using DM from previous geometries...
Number of DMs in history: 1
 DM extrapolation coefficients: 
1   1.00000
New DM after history re-use:
<dSpData2D:SpM extrapolated using coords
  <sparsity:sparsity for geom step 1
    nrows_g=326 nrows=26 sparsity=.0989 nnzs=10507, refcount: 8>
  <dData2D:(temp array for extrapolation) n=10507 m=2, refcount: 1>
refcount: 1>
No. of atoms with KB's overlaping orbs in proc 0. Max # of overlaps:      37     209
New grid distribution:   1
           1       1:   54    1:   80    1:   21
           2       1:   54    1:   80   22:   42
           3       1:   54    1:   80   43:   63
           4       1:   54    1:   80   64:   84
           5       1:   54    1:   80   85:  105
           6       1:   54    1:   80  106:  125
           7       1:   54   81:  160    1:   21
           8       1:   54   81:  160   22:   42
           9       1:   54   81:  160   43:   63
          10       1:   54   81:  160   64:   84
          11       1:   54   81:  160   85:  105
          12       1:   54   81:  160  106:  125
          13       1:   54  161:  240    1:   21
          14       1:   54  161:  240   22:   42
          15       1:   54  161:  240   43:   63
          16       1:   54  161:  240   64:   84
          17       1:   54  161:  240   85:  105
          18       1:   54  161:  240  106:  125
          19       1:   54  241:  320    1:   21
          20       1:   54  241:  320   22:   42
          21       1:   54  241:  320   43:   63
          22       1:   54  241:  320   64:   84
          23       1:   54  241:  320   85:  105
          24       1:   54  241:  320  106:  125

InitMesh: MESH =   108 x   640 x   250 =    17280000
InitMesh: (bp) =    54 x   320 x   125 =     2160000
InitMesh: Mesh cutoff (required, used) =   400.000   409.734 Ry
ExtMesh (bp) on 0 =   118 x   148 x    89 =     1554296
New grid distribution:   2
           1       1:   54    1:   37    1:   63
           2       1:   54   38:   45    1:   58
           3       1:   54   66:   69    1:   63
           4       1:   54   38:   45   59:   63
           5       1:   54   38:   45   68:  125
           6       1:   54   46:   49    1:   63
           7       1:   54   70:  320    1:   58
           8       1:   54   38:   45   64:   67
           9       1:   54   59:   65    1:   59
          10       1:   54   66:   69   64:  125
          11       1:   54   70:  320   69:  125
          12       1:   54   59:   65   60:   63
          13       1:   54    1:   37   64:  125
          14       1:   54   59:   65   68:  125
          15       1:   54   46:   49   64:  125
          16       1:   54   59:   65   64:   67
          17       1:   54   70:  320   64:   68
          18       1:   54   50:   55    1:   59
          19       1:   54   56:   58    1:   63
          20       1:   54   50:   55   64:   67
          21       1:   54   70:  320   59:   63
          22       1:   54   50:   55   68:  125
          23       1:   54   56:   58   64:  125
          24       1:   54   50:   55   60:   63
New grid distribution:   3
           1       1:   54    1:   25    1:   63
           2       1:   54   26:   37    1:   55
           3       1:   54   76:   82    1:   63
           4       1:   54   44:   56   64:   71
           5       1:   54    1:   25   64:  125
           6       1:   54   44:   56   72:  125
           7       1:   54   38:   44    1:   63
           8       1:   54   26:   37   56:   63
           9       1:   54   83:  320   57:   63
          10       1:   54   64:   75    1:   55
          11       1:   54   57:   63    1:   63
          12       1:   54   45:   56   56:   63
          13       1:   54   83:  320    1:   56
          14       1:   54   45:   56    1:   55
          15       1:   54   57:   63   64:  125
          16       1:   54   26:   37   64:   71
          17       1:   54   82:  320   71:  125
          18       1:   54   64:   75   72:  125
          19       1:   54   38:   43   64:  125
          20       1:   54   64:   75   64:   71
          21       1:   54   26:   37   72:  125
          22       1:   54   82:  320   64:   70
          23       1:   54   76:   81   64:  125
          24       1:   54   64:   75   56:   63
Setting up quadratic distribution...
ExtMesh (bp) on 0 =   118 x   105 x   131 =     1623090
PhiOnMesh: Number of (b)points on node 0 =               125874
PhiOnMesh: nlist on node 0 =               349785

        iscf     Eharris(eV)        E_KS(eV)     FreeEng(eV)     dDmax    Ef(eV) dHmax(eV)
   scf:    1    -3538.003587    -3538.383020    -3538.383021  0.026357 -3.502933  1.668171
   scf:    2    -3529.921388    -3535.828756    -3535.828756  0.046090 -3.584069  6.138135
   scf:    3    -3539.043341    -3538.531992    -3538.531993  0.036664 -3.527308  0.273701
   scf:    4    -3538.464223    -3538.518019    -3538.518021  0.007398 -3.554340  0.532203
   scf:    5    -3538.549779    -3538.536297    -3538.536298  0.002333 -3.553152  0.295816
   scf:    6    -3538.545914    -3538.544107    -3538.544108  0.002638 -3.560216  0.028670
   scf:    7    -3538.544188    -3538.544163    -3538.544164  0.000309 -3.560690  0.019878
   scf:    8    -3538.544208    -3538.544195    -3538.544196  0.000146 -3.560548  0.004274
   scf:    9    -3538.544202    -3538.544200    -3538.544202  0.000115 -3.560394  0.003365
   scf:   10    -3538.544202    -3538.544202    -3538.544203  0.000036 -3.560481  0.000739
   scf:   11    -3538.544202    -3538.544202    -3538.544203  0.000006 -3.560523  0.000653

SCF Convergence by DM+H criterion
max |DM_out - DM_in|         :     0.0000058539
max |H_out - H_in|      (eV) :     0.0006528573
SCF cycle converged after 11 iterations

Using DM_out to compute the final energy and forces
No. of atoms with KB's overlaping orbs in proc 0. Max # of overlaps:      37     209

siesta: E_KS(eV) =            -3538.5442

siesta: Total spin polarization (Qup-Qdown) =    0.000000

siesta: Atomic forces (eV/Ang):
----------------------------------------
   Tot    0.008118    0.009468   -0.000000
----------------------------------------
   Max    2.820970
   Res    0.505512    sqrt( Sum f_i^2 / 3N )
----------------------------------------
   Max    2.820970    constrained

Stress-tensor-Voigt (kbar):       -0.36        0.86        0.00       -0.16        0.00        0.00
(Free)E + p*V (eV/cell)    -3539.4645
Target enthalpy (eV/cell)    -3538.5442
 
mulliken: Atomic and Orbital Populations:

mulliken: Spin UP 

Species: H.ca                
Atom  Qatom  Qorb
               1s      1s      1Ppy    1Ppz    1Ppx    
   1  0.623   0.407   0.159   0.025   0.019   0.014
   3  0.625   0.421   0.149   0.024   0.019   0.012
   9  0.616   0.410   0.151   0.018   0.017   0.020
  10  0.624   0.421   0.148   0.024   0.019   0.013
  23  0.621   0.424   0.143   0.023   0.018   0.013
  24  0.622   0.409   0.157   0.018   0.019   0.020
  28  0.623   0.423   0.146   0.024   0.019   0.012
  30  0.621   0.408   0.156   0.025   0.018   0.014

Species: C.ca2               
Atom  Qatom  Qorb
               2s      2s      2py     2pz     2px     2py     2pz     2px     
               2Pdxy   2Pdyz   2Pdz2   2Pdxz   2Pdx2-y2
   2  1.987   0.243   0.246   0.221   0.382   0.227   0.252   0.082   0.251
              0.023   0.016   0.002   0.017   0.025
   4  1.907   0.184   0.276   0.085   0.403   0.250   0.345   0.067   0.237
              0.016   0.005   0.001   0.016   0.022
   5  1.972   0.234   0.249   0.215   0.372   0.214   0.257   0.087   0.260
              0.024   0.015   0.002   0.018   0.025
   6  2.000   0.250   0.244   0.223   0.389   0.231   0.252   0.079   0.251
              0.023   0.015   0.002   0.016   0.024
   7  1.998   0.251   0.243   0.228   0.387   0.229   0.250   0.080   0.250
              0.024   0.014   0.002   0.016   0.023
   8  1.891   0.181   0.275   0.096   0.389   0.232   0.330   0.075   0.251
              0.019   0.004   0.001   0.016   0.021
  11  1.906   0.184   0.276   0.082   0.405   0.252   0.345   0.066   0.236
              0.017   0.005   0.001   0.016   0.021
  12  1.971   0.236   0.249   0.214   0.373   0.209   0.257   0.087   0.265
              0.024   0.015   0.002   0.017   0.024
  13  1.999   0.248   0.245   0.225   0.385   0.227   0.254   0.082   0.254
              0.024   0.015   0.002   0.016   0.024
  14  1.999   0.250   0.244   0.225   0.386   0.228   0.252   0.081   0.253
              0.024   0.015   0.002   0.016   0.024
  15  1.971   0.240   0.248   0.221   0.377   0.207   0.249   0.083   0.264
              0.024   0.014   0.002   0.017   0.024
  16  1.909   0.188   0.274   0.089   0.405   0.250   0.338   0.067   0.238
              0.017   0.004   0.001   0.016   0.021
  17  1.888   0.176   0.278   0.084   0.393   0.238   0.344   0.072   0.244
              0.018   0.004   0.001   0.016   0.021
  18  1.889   0.174   0.279   0.158   0.393   0.160   0.294   0.072   0.299
              0.024   0.010   0.001   0.010   0.015
  19  1.998   0.249   0.244   0.227   0.385   0.227   0.253   0.082   0.252
              0.024   0.015   0.002   0.016   0.024
  20  2.000   0.249   0.244   0.223   0.389   0.230   0.252   0.080   0.252
              0.023   0.015   0.002   0.016   0.024
  21  1.972   0.235   0.249   0.219   0.374   0.213   0.253   0.086   0.261
              0.024   0.015   0.002   0.018   0.025
  22  1.910   0.187   0.274   0.089   0.402   0.250   0.341   0.069   0.238
              0.016   0.005   0.001   0.016   0.023
  25  1.987   0.245   0.246   0.215   0.386   0.230   0.257   0.081   0.246
              0.024   0.016   0.002   0.016   0.024
  26  1.988   0.243   0.247   0.219   0.381   0.229   0.254   0.083   0.250
              0.023   0.016   0.002   0.017   0.025
  27  1.986   0.247   0.245   0.217   0.389   0.230   0.255   0.079   0.244
              0.023   0.015   0.002   0.016   0.024
  29  1.896   0.182   0.273   0.157   0.387   0.169   0.292   0.079   0.294
              0.024   0.010   0.001   0.011   0.015

mulliken: Qtot =       48.000

mulliken: Spin DOWN 

Species: H.ca                
Atom  Qatom  Qorb
               1s      1s      1Ppy    1Ppz    1Ppx    
   1  0.623   0.407   0.159   0.025   0.019   0.014
   3  0.625   0.421   0.149   0.024   0.019   0.012
   9  0.616   0.410   0.151   0.018   0.017   0.020
  10  0.624   0.421   0.148   0.024   0.019   0.013
  23  0.621   0.424   0.143   0.023   0.018   0.013
  24  0.622   0.409   0.157   0.018   0.019   0.020
  28  0.623   0.423   0.146   0.024   0.019   0.012
  30  0.621   0.408   0.156   0.025   0.018   0.014

Species: C.ca2               
Atom  Qatom  Qorb
               2s      2s      2py     2pz     2px     2py     2pz     2px     
               2Pdxy   2Pdyz   2Pdz2   2Pdxz   2Pdx2-y2
   2  1.987   0.243   0.246   0.221   0.382   0.227   0.252   0.082   0.251
              0.023   0.016   0.002   0.017   0.025
   4  1.907   0.184   0.276   0.085   0.403   0.250   0.345   0.067   0.237
              0.016   0.005   0.001   0.016   0.022
   5  1.972   0.234   0.249   0.215   0.372   0.214   0.257   0.087   0.260
              0.024   0.015   0.002   0.018   0.025
   6  2.000   0.250   0.244   0.223   0.389   0.231   0.252   0.079   0.251
              0.023   0.015   0.002   0.016   0.024
   7  1.998   0.251   0.243   0.228   0.387   0.229   0.250   0.080   0.250
              0.024   0.014   0.002   0.016   0.023
   8  1.891   0.181   0.275   0.096   0.389   0.232   0.330   0.075   0.251
              0.019   0.004   0.001   0.016   0.021
  11  1.906   0.184   0.276   0.082   0.405   0.252   0.345   0.066   0.236
              0.017   0.005   0.001   0.016   0.021
  12  1.971   0.236   0.249   0.214   0.373   0.209   0.257   0.087   0.265
              0.024   0.015   0.002   0.017   0.024
  13  1.999   0.248   0.245   0.225   0.385   0.227   0.254   0.082   0.254
              0.024   0.015   0.002   0.016   0.024
  14  1.999   0.250   0.244   0.225   0.386   0.228   0.252   0.081   0.253
              0.024   0.015   0.002   0.016   0.024
  15  1.971   0.240   0.248   0.221   0.377   0.207   0.249   0.083   0.264
              0.024   0.014   0.002   0.017   0.024
  16  1.909   0.188   0.274   0.089   0.405   0.250   0.338   0.067   0.238
              0.017   0.004   0.001   0.016   0.021
  17  1.888   0.176   0.278   0.084   0.393   0.238   0.344   0.072   0.244
              0.018   0.004   0.001   0.016   0.021
  18  1.889   0.174   0.279   0.158   0.393   0.160   0.294   0.072   0.299
              0.024   0.010   0.001   0.010   0.015
  19  1.999   0.249   0.244   0.227   0.385   0.227   0.253   0.082   0.252
              0.024   0.015   0.002   0.016   0.024
  20  2.000   0.249   0.244   0.223   0.389   0.230   0.252   0.080   0.252
              0.023   0.015   0.002   0.016   0.024
  21  1.972   0.235   0.249   0.219   0.374   0.213   0.253   0.086   0.261
              0.024   0.015   0.002   0.018   0.025
  22  1.910   0.187   0.274   0.089   0.402   0.250   0.341   0.069   0.238
              0.016   0.005   0.001   0.016   0.023
  25  1.987   0.245   0.246   0.215   0.386   0.230   0.257   0.081   0.246
              0.024   0.016   0.002   0.016   0.024
  26  1.988   0.243   0.247   0.219   0.381   0.229   0.254   0.083   0.250
              0.023   0.016   0.002   0.017   0.025
  27  1.986   0.247   0.245   0.217   0.389   0.230   0.255   0.079   0.244
              0.023   0.015   0.002   0.016   0.024
  29  1.896   0.182   0.273   0.157   0.387   0.169   0.292   0.079   0.294
              0.024   0.010   0.001   0.011   0.015

mulliken: Qtot =       48.000

                     ====================================
                        Begin CG opt. move =      2
                     ====================================

superc: Internal auxiliary supercell:     3 x     1 x     1  =       3
superc: Number of atoms, orbitals, and projectors:     90    978   1272

outcell: Unit cell vectors (Ang):
        8.870000    0.000000    0.000000
        0.000000   50.000000    0.000000
        0.000000    0.000000   20.000000

outcell: Cell vector modules (Ang)   :    8.870000   50.000000   20.000000
outcell: Cell angles (23,13,12) (deg):     90.0000     90.0000     90.0000
outcell: Cell volume (Ang**3)        :   8870.0000
<dSpData1D:S at geom step 2
  <sparsity:sparsity for geom step 2
    nrows_g=326 nrows=26 sparsity=.0989 nnzs=10507, refcount: 7>
  <dData1D:(new from dSpData1D) n=10507, refcount: 1>
refcount: 1>
new_DM -- step:     3
Re-using DM from previous geometries...
Number of DMs in history: 1
 DM extrapolation coefficients: 
1   1.00000
New DM after history re-use:
<dSpData2D:SpM extrapolated using coords
  <sparsity:sparsity for geom step 2
    nrows_g=326 nrows=26 sparsity=.0989 nnzs=10507, refcount: 8>
  <dData2D:(temp array for extrapolation) n=10507 m=2, refcount: 1>
refcount: 1>
No. of atoms with KB's overlaping orbs in proc 0. Max # of overlaps:      37     209
New grid distribution:   1
           1       1:   54    1:   80    1:   21
           2       1:   54    1:   80   22:   42
           3       1:   54    1:   80   43:   63
           4       1:   54    1:   80   64:   84
           5       1:   54    1:   80   85:  105
           6       1:   54    1:   80  106:  125
           7       1:   54   81:  160    1:   21
           8       1:   54   81:  160   22:   42
           9       1:   54   81:  160   43:   63
          10       1:   54   81:  160   64:   84
          11       1:   54   81:  160   85:  105
          12       1:   54   81:  160  106:  125
          13       1:   54  161:  240    1:   21
          14       1:   54  161:  240   22:   42
          15       1:   54  161:  240   43:   63
          16       1:   54  161:  240   64:   84
          17       1:   54  161:  240   85:  105
          18       1:   54  161:  240  106:  125
          19       1:   54  241:  320    1:   21
          20       1:   54  241:  320   22:   42
          21       1:   54  241:  320   43:   63
          22       1:   54  241:  320   64:   84
          23       1:   54  241:  320   85:  105
          24       1:   54  241:  320  106:  125

InitMesh: MESH =   108 x   640 x   250 =    17280000
InitMesh: (bp) =    54 x   320 x   125 =     2160000
InitMesh: Mesh cutoff (required, used) =   400.000   409.734 Ry
ExtMesh (bp) on 0 =   118 x   148 x    89 =     1554296
New grid distribution:   2
           1       1:   54    1:   37    1:   63
           2       1:   54   38:   45    1:   58
           3       1:   54   66:   69    1:   63
           4       1:   54   38:   45   59:   63
           5       1:   54   38:   45   68:  125
           6       1:   54   46:   49    1:   63
           7       1:   54   70:  320    1:   58
           8       1:   54   38:   45   64:   67
           9       1:   54   59:   65    1:   59
          10       1:   54   66:   69   64:  125
          11       1:   54   70:  320   69:  125
          12       1:   54   59:   65   60:   63
          13       1:   54    1:   37   64:  125
          14       1:   54   59:   65   68:  125
          15       1:   54   46:   49   64:  125
          16       1:   54   59:   65   64:   67
          17       1:   54   70:  320   64:   68
          18       1:   54   50:   55    1:   59
          19       1:   54   56:   58    1:   63
          20       1:   54   50:   55   64:   67
          21       1:   54   70:  320   59:   63
          22       1:   54   50:   55   68:  125
          23       1:   54   56:   58   64:  125
          24       1:   54   50:   55   60:   63
New grid distribution:   3
           1       1:   54    1:   25    1:   63
           2       1:   54   26:   37    1:   55
           3       1:   54   76:   82    1:   63
           4       1:   54   44:   56   64:   71
           5       1:   54    1:   25   64:  125
           6       1:   54   44:   56   72:  125
           7       1:   54   38:   44    1:   63
           8       1:   54   26:   37   56:   63
           9       1:   54   83:  320   57:   63
          10       1:   54   64:   75    1:   55
          11       1:   54   57:   63    1:   63
          12       1:   54   45:   56   56:   63
          13       1:   54   83:  320    1:   56
          14       1:   54   45:   56    1:   55
          15       1:   54   57:   63   64:  125
          16       1:   54   26:   37   64:   71
          17       1:   54   82:  320   71:  125
          18       1:   54   64:   75   72:  125
          19       1:   54   38:   43   64:  125
          20       1:   54   64:   75   64:   71
          21       1:   54   26:   37   72:  125
          22       1:   54   82:  320   64:   70
          23       1:   54   76:   81   64:  125
          24       1:   54   64:   75   56:   63
Setting up quadratic distribution...
ExtMesh (bp) on 0 =   118 x   105 x   131 =     1623090
PhiOnMesh: Number of (b)points on node 0 =               125874
PhiOnMesh: nlist on node 0 =               349883

        iscf     Eharris(eV)        E_KS(eV)     FreeEng(eV)     dDmax    Ef(eV) dHmax(eV)
   scf:    1    -3538.590997    -3538.600552    -3538.600555  0.010968 -3.571941  0.694244
   scf:    2    -3536.507441    -3537.956012    -3537.956012  0.026566 -3.535037  2.840598
   scf:    3    -3538.730389    -3538.627447    -3538.627450  0.022538 -3.563210  0.111647
   scf:    4    -3538.629134    -3538.628924    -3538.628927  0.001276 -3.554507  0.064755
   scf:    5    -3538.622844    -3538.627417    -3538.627419  0.001884 -3.551402  0.143371
   scf:    6    -3538.629834    -3538.629330    -3538.629333  0.001369 -3.549676  0.018078
   scf:    7    -3538.629360    -3538.629349    -3538.629352  0.000101 -3.549500  0.003793
   scf:    8    -3538.629351    -3538.629352    -3538.629355  0.000049 -3.549552  0.003289
   scf:    9    -3538.629351    -3538.629351    -3538.629354  0.000041 -3.549575  0.000776
   scf:   10    -3538.629353    -3538.629353    -3538.629356  0.000010 -3.549545  0.000296

SCF Convergence by DM+H criterion
max |DM_out - DM_in|         :     0.0000096877
max |H_out - H_in|      (eV) :     0.0002962154
SCF cycle converged after 10 iterations

Using DM_out to compute the final energy and forces
No. of atoms with KB's overlaping orbs in proc 0. Max # of overlaps:      37     209

siesta: E_KS(eV) =            -3538.6294

siesta: Total spin polarization (Qup-Qdown) =    0.000000

siesta: Atomic forces (eV/Ang):
----------------------------------------
   Tot    0.010131    0.005672   -0.000000
----------------------------------------
   Max    0.396968
   Res    0.122219    sqrt( Sum f_i^2 / 3N )
----------------------------------------
   Max    0.396968    constrained

Stress-tensor-Voigt (kbar):        0.01        0.83        0.00       -0.11        0.00        0.00
(Free)E + p*V (eV/cell)    -3540.1792
Target enthalpy (eV/cell)    -3538.6294
 
mulliken: Atomic and Orbital Populations:

mulliken: Spin UP 

Species: H.ca                
Atom  Qatom  Qorb
               1s      1s      1Ppy    1Ppz    1Ppx    
   1  0.623   0.407   0.159   0.025   0.019   0.014
   3  0.625   0.421   0.149   0.024   0.019   0.012
   9  0.621   0.407   0.157   0.018   0.019   0.020
  10  0.624   0.421   0.148   0.024   0.019   0.013
  23  0.623   0.422   0.146   0.023   0.018   0.013
  24  0.622   0.409   0.157   0.018   0.019   0.020
  28  0.624   0.422   0.148   0.024   0.019   0.012
  30  0.622   0.407   0.157   0.025   0.018   0.014

Species: C.ca2               
Atom  Qatom  Qorb
               2s      2s      2py     2pz     2px     2py     2pz     2px     
               2Pdxy   2Pdyz   2Pdz2   2Pdxz   2Pdx2-y2
   2  1.987   0.243   0.247   0.221   0.383   0.227   0.252   0.082   0.251
              0.023   0.016   0.002   0.017   0.025
   4  1.907   0.184   0.276   0.085   0.404   0.249   0.345   0.067   0.238
              0.016   0.005   0.001   0.016   0.022
   5  1.972   0.234   0.249   0.215   0.372   0.214   0.257   0.087   0.261
              0.024   0.015   0.002   0.018   0.025
   6  2.000   0.250   0.244   0.224   0.389   0.230   0.252   0.079   0.252
              0.023   0.015   0.002   0.016   0.024
   7  1.998   0.250   0.244   0.227   0.387   0.229   0.251   0.081   0.251
              0.024   0.014   0.002   0.016   0.023
   8  1.888   0.180   0.277   0.092   0.395   0.235   0.336   0.069   0.244
              0.018   0.004   0.001   0.016   0.021
  11  1.906   0.184   0.276   0.082   0.406   0.252   0.345   0.066   0.236
              0.017   0.005   0.001   0.016   0.021
  12  1.971   0.236   0.249   0.214   0.373   0.209   0.256   0.087   0.265
              0.025   0.015   0.002   0.017   0.024
  13  1.999   0.248   0.245   0.225   0.385   0.227   0.254   0.082   0.254
              0.024   0.015   0.002   0.016   0.024
  14  1.999   0.248   0.245   0.225   0.385   0.228   0.253   0.082   0.253
              0.024   0.015   0.002   0.016   0.024
  15  1.972   0.240   0.248   0.218   0.376   0.211   0.252   0.084   0.262
              0.024   0.014   0.002   0.017   0.024
  16  1.906   0.187   0.275   0.086   0.408   0.252   0.340   0.064   0.235
              0.017   0.004   0.001   0.016   0.021
  17  1.888   0.176   0.278   0.084   0.393   0.237   0.344   0.072   0.244
              0.018   0.004   0.001   0.016   0.021
  18  1.889   0.174   0.279   0.158   0.393   0.160   0.293   0.072   0.299
              0.024   0.010   0.001   0.010   0.015
  19  1.998   0.249   0.244   0.227   0.386   0.227   0.253   0.082   0.252
              0.024   0.015   0.002   0.016   0.024
  20  2.000   0.249   0.244   0.224   0.388   0.229   0.252   0.080   0.252
              0.023   0.015   0.002   0.016   0.024
  21  1.973   0.236   0.249   0.217   0.374   0.215   0.254   0.085   0.260
              0.024   0.015   0.002   0.018   0.025
  22  1.908   0.187   0.275   0.088   0.405   0.251   0.341   0.066   0.235
              0.016   0.005   0.001   0.016   0.022
  25  1.987   0.245   0.246   0.215   0.386   0.230   0.257   0.081   0.247
              0.024   0.015   0.002   0.016   0.024
  26  1.988   0.243   0.247   0.219   0.382   0.228   0.254   0.082   0.251
              0.023   0.016   0.002   0.017   0.025
  27  1.987   0.247   0.245   0.215   0.387   0.231   0.255   0.080   0.246
              0.023   0.015   0.002   0.016   0.024
  29  1.891   0.178   0.278   0.154   0.395   0.169   0.295   0.071   0.292
              0.024   0.010   0.001   0.010   0.015

mulliken: Qtot =       48.000

mulliken: Spin DOWN 

Species: H.ca                
Atom  Qatom  Qorb
               1s      1s      1Ppy    1Ppz    1Ppx    
   1  0.623   0.407   0.159   0.025   0.019   0.014
   3  0.625   0.421   0.149   0.024   0.019   0.012
   9  0.621   0.407   0.157   0.018   0.019   0.020
  10  0.624   0.421   0.148   0.024   0.019   0.013
  23  0.623   0.422   0.146   0.023   0.018   0.013
  24  0.622   0.409   0.157   0.018   0.019   0.020
  28  0.624   0.422   0.148   0.024   0.019   0.012
  30  0.622   0.407   0.157   0.025   0.018   0.014

Species: C.ca2               
Atom  Qatom  Qorb
               2s      2s      2py     2pz     2px     2py     2pz     2px     
               2Pdxy   2Pdyz   2Pdz2   2Pdxz   2Pdx2-y2
   2  1.987   0.243   0.247   0.221   0.383   0.227   0.252   0.082   0.251
              0.023   0.016   0.002   0.017   0.025
   4  1.907   0.184   0.276   0.085   0.404   0.249   0.345   0.067   0.238
              0.016   0.005   0.001   0.016   0.022
   5  1.972   0.234   0.249   0.215   0.372   0.214   0.257   0.087   0.261
              0.024   0.015   0.002   0.018   0.025
   6  2.000   0.250   0.244   0.224   0.389   0.230   0.252   0.079   0.252
              0.023   0.015   0.002   0.016   0.024
   7  1.998   0.250   0.244   0.227   0.387   0.229   0.251   0.081   0.251
              0.024   0.014   0.002   0.016   0.023
   8  1.888   0.180   0.277   0.092   0.395   0.235   0.336   0.069   0.244
              0.018   0.004   0.001   0.016   0.021
  11  1.906   0.184   0.276   0.082   0.406   0.252   0.345   0.066   0.236
              0.017   0.005   0.001   0.016   0.021
  12  1.971   0.236   0.249   0.214   0.373   0.209   0.256   0.087   0.265
              0.025   0.015   0.002   0.017   0.024
  13  1.999   0.248   0.245   0.225   0.385   0.227   0.254   0.082   0.254
              0.024   0.015   0.002   0.016   0.024
  14  1.999   0.248   0.245   0.225   0.385   0.228   0.253   0.082   0.253
              0.024   0.015   0.002   0.016   0.024
  15  1.972   0.240   0.248   0.218   0.376   0.211   0.252   0.084   0.262
              0.024   0.014   0.002   0.017   0.024
  16  1.906   0.187   0.275   0.086   0.408   0.252   0.340   0.064   0.235
              0.017   0.004   0.001   0.016   0.021
  17  1.888   0.176   0.278   0.084   0.393   0.237   0.344   0.072   0.244
              0.018   0.004   0.001   0.016   0.021
  18  1.889   0.174   0.279   0.158   0.393   0.160   0.293   0.072   0.299
              0.024   0.010   0.001   0.010   0.015
  19  1.998   0.249   0.244   0.227   0.386   0.227   0.253   0.082   0.252
              0.024   0.015   0.002   0.016   0.024
  20  2.000   0.249   0.244   0.224   0.388   0.229   0.252   0.080   0.252
              0.023   0.015   0.002   0.016   0.024
  21  1.973   0.236   0.249   0.217   0.374   0.215   0.254   0.085   0.260
              0.024   0.015   0.002   0.018   0.025
  22  1.908   0.187   0.275   0.088   0.405   0.251   0.341   0.066   0.235
              0.016   0.005   0.001   0.016   0.022
  25  1.987   0.245   0.246   0.215   0.386   0.230   0.257   0.081   0.247
              0.024   0.015   0.002   0.016   0.024
  26  1.988   0.243   0.247   0.219   0.382   0.228   0.254   0.082   0.251
              0.023   0.016   0.002   0.017   0.025
  27  1.987   0.247   0.245   0.215   0.387   0.231   0.255   0.080   0.246
              0.023   0.015   0.002   0.016   0.024
  29  1.891   0.178   0.278   0.154   0.395   0.169   0.295   0.071   0.292
              0.024   0.010   0.001   0.010   0.015

mulliken: Qtot =       48.000

cgvc: Finished line minimization    1.  Mean atomic displacement =    0.0224

                     ====================================
                        Begin CG opt. move =      3
                     ====================================

superc: Internal auxiliary supercell:     3 x     1 x     1  =       3
superc: Number of atoms, orbitals, and projectors:     90    978   1272

outcell: Unit cell vectors (Ang):
        8.870000    0.000000    0.000000
        0.000000   50.000000    0.000000
        0.000000    0.000000   20.000000

outcell: Cell vector modules (Ang)   :    8.870000   50.000000   20.000000
outcell: Cell angles (23,13,12) (deg):     90.0000     90.0000     90.0000
outcell: Cell volume (Ang**3)        :   8870.0000
<dSpData1D:S at geom step 3
  <sparsity:sparsity for geom step 3
    nrows_g=326 nrows=26 sparsity=.0989 nnzs=10507, refcount: 7>
  <dData1D:(new from dSpData1D) n=10507, refcount: 1>
refcount: 1>
new_DM -- step:     4
Re-using DM from previous geometries...
Number of DMs in history: 1
 DM extrapolation coefficients: 
1   1.00000
New DM after history re-use:
<dSpData2D:SpM extrapolated using coords
  <sparsity:sparsity for geom step 3
    nrows_g=326 nrows=26 sparsity=.0989 nnzs=10507, refcount: 8>
  <dData2D:(temp array for extrapolation) n=10507 m=2, refcount: 1>
refcount: 1>
No. of atoms with KB's overlaping orbs in proc 0. Max # of overlaps:      37     209
New grid distribution:   1
           1       1:   54    1:   80    1:   21
           2       1:   54    1:   80   22:   42
           3       1:   54    1:   80   43:   63
           4       1:   54    1:   80   64:   84
           5       1:   54    1:   80   85:  105
           6       1:   54    1:   80  106:  125
           7       1:   54   81:  160    1:   21
           8       1:   54   81:  160   22:   42
           9       1:   54   81:  160   43:   63
          10       1:   54   81:  160   64:   84
          11       1:   54   81:  160   85:  105
          12       1:   54   81:  160  106:  125
          13       1:   54  161:  240    1:   21
          14       1:   54  161:  240   22:   42
          15       1:   54  161:  240   43:   63
          16       1:   54  161:  240   64:   84
          17       1:   54  161:  240   85:  105
          18       1:   54  161:  240  106:  125
          19       1:   54  241:  320    1:   21
          20       1:   54  241:  320   22:   42
          21       1:   54  241:  320   43:   63
          22       1:   54  241:  320   64:   84
          23       1:   54  241:  320   85:  105
          24       1:   54  241:  320  106:  125

InitMesh: MESH =   108 x   640 x   250 =    17280000
InitMesh: (bp) =    54 x   320 x   125 =     2160000
InitMesh: Mesh cutoff (required, used) =   400.000   409.734 Ry
ExtMesh (bp) on 0 =   118 x   148 x    89 =     1554296
New grid distribution:   2
           1       1:   54    1:   37    1:   63
           2       1:   54   38:   45    1:   58
           3       1:   54   66:   69    1:   63
           4       1:   54   38:   45   59:   63
           5       1:   54   38:   45   68:  125
           6       1:   54   46:   49    1:   63
           7       1:   54   70:  320    1:   58
           8       1:   54   38:   45   64:   67
           9       1:   54   59:   65    1:   59
          10       1:   54   66:   69   64:  125
          11       1:   54   70:  320   69:  125
          12       1:   54   59:   65   60:   63
          13       1:   54    1:   37   64:  125
          14       1:   54   59:   65   68:  125
          15       1:   54   46:   49   64:  125
          16       1:   54   59:   65   64:   67
          17       1:   54   70:  320   64:   68
          18       1:   54   50:   55    1:   59
          19       1:   54   56:   58    1:   63
          20       1:   54   50:   55   64:   67
          21       1:   54   70:  320   59:   63
          22       1:   54   50:   55   68:  125
          23       1:   54   56:   58   64:  125
          24       1:   54   50:   55   60:   63
New grid distribution:   3
           1       1:   54    1:   25    1:   63
           2       1:   54   26:   37    1:   55
           3       1:   54   38:   44    1:   63
           4       1:   54   44:   56   64:   71
           5       1:   54    1:   25   64:  125
           6       1:   54   44:   56   72:  125
           7       1:   54   57:   63    1:   63
           8       1:   54   26:   37   56:   63
           9       1:   54   64:   75    1:   55
          10       1:   54   82:  320   64:   70
          11       1:   54   57:   63   64:  125
          12       1:   54   45:   56   56:   63
          13       1:   54   82:  320    1:   56
          14       1:   54   45:   56    1:   55
          15       1:   54   76:   81    1:   63
          16       1:   54   26:   37   64:   71
          17       1:   54   82:  320   71:  125
          18       1:   54   64:   75   72:  125
          19       1:   54   38:   43   64:  125
          20       1:   54   64:   75   64:   71
          21       1:   54   82:  320   57:   63
          22       1:   54   26:   37   72:  125
          23       1:   54   76:   81   64:  125
          24       1:   54   64:   75   56:   63
Setting up quadratic distribution...
ExtMesh (bp) on 0 =   118 x   105 x   131 =     1623090
PhiOnMesh: Number of (b)points on node 0 =               125874
PhiOnMesh: nlist on node 0 =               349591

        iscf     Eharris(eV)        E_KS(eV)     FreeEng(eV)     dDmax    Ef(eV) dHmax(eV)
   scf:    1    -3537.080201    -3538.196229    -3538.196229  0.023342 -3.594493  2.195319
   scf:    2    -3513.047581    -3530.606259    -3530.606259  0.095480 -3.359100 10.408247
   scf:    3    -3540.419450    -3538.602434    -3538.602435  0.071653 -3.561205  0.431066
   scf:    4    -3538.582204    -3538.609499    -3538.609500  0.006636 -3.559741  0.334761
   scf:    5    -3538.622793    -3538.618679    -3538.618680  0.002275 -3.552404  0.089479
   scf:    6    -3538.619612    -3538.619293    -3538.619294  0.000491 -3.549526  0.023877
   scf:    7    -3538.619359    -3538.619359    -3538.619360  0.000361 -3.548408  0.008483
   scf:    8    -3538.619317    -3538.619350    -3538.619351  0.000188 -3.547832  0.013808
   scf:    9    -3538.619368    -3538.619370    -3538.619371  0.000205 -3.547780  0.002575
   scf:   10    -3538.619369    -3538.619369    -3538.619370  0.000032 -3.547831  0.000400
   scf:   11    -3538.619369    -3538.619369    -3538.619370  0.000005 -3.547830  0.000233

SCF Convergence by DM+H criterion
max |DM_out - DM_in|         :     0.0000053034
max |H_out - H_in|      (eV) :     0.0002326727
SCF cycle converged after 11 iterations

Using DM_out to compute the final energy and forces
No. of atoms with KB's overlaping orbs in proc 0. Max # of overlaps:      37     209

siesta: E_KS(eV) =            -3538.6194

siesta: Total spin polarization (Qup-Qdown) =   -0.000000

siesta: Atomic forces (eV/Ang):
----------------------------------------
   Tot    0.014556    0.002274   -0.000000
----------------------------------------
   Max    0.959141
   Res    0.274000    sqrt( Sum f_i^2 / 3N )
----------------------------------------
   Max    0.959141    constrained

Stress-tensor-Voigt (kbar):       -0.16        0.30        0.00       -0.06        0.00       -0.00
(Free)E + p*V (eV/cell)    -3538.8945
Target enthalpy (eV/cell)    -3538.6194
 
mulliken: Atomic and Orbital Populations:

mulliken: Spin UP 

Species: H.ca                
Atom  Qatom  Qorb
               1s      1s      1Ppy    1Ppz    1Ppx    
   1  0.623   0.407   0.159   0.025   0.019   0.014
   3  0.625   0.421   0.149   0.024   0.019   0.012
   9  0.622   0.408   0.157   0.018   0.019   0.020
  10  0.624   0.421   0.148   0.023   0.019   0.013
  23  0.625   0.420   0.149   0.023   0.019   0.013
  24  0.622   0.409   0.156   0.018   0.018   0.020
  28  0.626   0.420   0.150   0.024   0.019   0.012
  30  0.624   0.407   0.160   0.025   0.019   0.014

Species: C.ca2               
Atom  Qatom  Qorb
               2s      2s      2py     2pz     2px     2py     2pz     2px     
               2Pdxy   2Pdyz   2Pdz2   2Pdxz   2Pdx2-y2
   2  1.987   0.245   0.246   0.221   0.384   0.229   0.250   0.081   0.250
              0.022   0.015   0.002   0.017   0.025
   4  1.907   0.184   0.276   0.085   0.403   0.249   0.345   0.067   0.237
              0.016   0.005   0.001   0.016   0.022
   5  1.973   0.233   0.250   0.215   0.371   0.214   0.257   0.088   0.261
              0.024   0.015   0.002   0.018   0.025
   6  2.000   0.251   0.244   0.224   0.389   0.232   0.252   0.079   0.249
              0.023   0.015   0.002   0.015   0.024
   7  1.998   0.251   0.244   0.226   0.388   0.229   0.254   0.080   0.247
              0.024   0.015   0.002   0.015   0.024
   8  1.888   0.173   0.279   0.082   0.389   0.236   0.347   0.074   0.247
              0.018   0.004   0.001   0.016   0.022
  11  1.906   0.184   0.276   0.081   0.405   0.252   0.345   0.066   0.236
              0.017   0.005   0.001   0.016   0.021
  12  1.971   0.235   0.249   0.214   0.372   0.208   0.257   0.087   0.265
              0.024   0.015   0.002   0.017   0.025
  13  1.999   0.249   0.245   0.223   0.386   0.229   0.255   0.081   0.252
              0.024   0.015   0.002   0.016   0.024
  14  1.998   0.248   0.245   0.223   0.385   0.228   0.255   0.081   0.252
              0.024   0.015   0.002   0.016   0.024
  15  1.971   0.233   0.250   0.212   0.371   0.208   0.260   0.089   0.266
              0.025   0.015   0.002   0.017   0.025
  16  1.904   0.184   0.277   0.082   0.407   0.252   0.345   0.064   0.235
              0.017   0.004   0.001   0.016   0.021
  17  1.889   0.176   0.278   0.084   0.392   0.237   0.343   0.072   0.245
              0.018   0.004   0.001   0.016   0.021
  18  1.890   0.175   0.279   0.158   0.392   0.160   0.294   0.073   0.299
              0.024   0.010   0.001   0.010   0.015
  19  1.998   0.250   0.244   0.226   0.386   0.229   0.253   0.081   0.250
              0.024   0.015   0.002   0.015   0.023
  20  2.000   0.252   0.244   0.224   0.390   0.232   0.250   0.078   0.251
              0.023   0.015   0.002   0.016   0.024
  21  1.973   0.232   0.250   0.214   0.371   0.213   0.259   0.089   0.262
              0.024   0.015   0.002   0.018   0.025
  22  1.907   0.181   0.277   0.084   0.402   0.247   0.347   0.068   0.240
              0.016   0.005   0.001   0.016   0.022
  25  1.986   0.246   0.245   0.216   0.387   0.231   0.257   0.080   0.245
              0.023   0.015   0.002   0.016   0.024
  26  1.986   0.246   0.246   0.222   0.385   0.228   0.249   0.080   0.249
              0.022   0.015   0.002   0.017   0.025
  27  1.988   0.246   0.245   0.216   0.386   0.231   0.256   0.081   0.246
              0.023   0.015   0.002   0.016   0.024
  29  1.889   0.176   0.279   0.161   0.394   0.159   0.290   0.071   0.299
              0.024   0.010   0.001   0.010   0.015

mulliken: Qtot =       48.000

mulliken: Spin DOWN 

Species: H.ca                
Atom  Qatom  Qorb
               1s      1s      1Ppy    1Ppz    1Ppx    
   1  0.623   0.407   0.159   0.025   0.019   0.014
   3  0.625   0.421   0.149   0.024   0.019   0.012
   9  0.622   0.408   0.157   0.018   0.019   0.020
  10  0.624   0.421   0.148   0.023   0.019   0.013
  23  0.625   0.420   0.149   0.023   0.019   0.013
  24  0.622   0.409   0.156   0.018   0.018   0.020
  28  0.626   0.420   0.150   0.024   0.019   0.012
  30  0.624   0.407   0.160   0.025   0.019   0.014

Species: C.ca2               
Atom  Qatom  Qorb
               2s      2s      2py     2pz     2px     2py     2pz     2px     
               2Pdxy   2Pdyz   2Pdz2   2Pdxz   2Pdx2-y2
   2  1.987   0.245   0.246   0.221   0.384   0.229   0.250   0.081   0.250
              0.022   0.015   0.002   0.017   0.025
   4  1.907   0.184   0.276   0.085   0.403   0.249   0.345   0.067   0.237
              0.016   0.005   0.001   0.016   0.022
   5  1.973   0.233   0.250   0.215   0.371   0.214   0.257   0.088   0.261
              0.024   0.015   0.002   0.018   0.025
   6  2.000   0.251   0.244   0.224   0.389   0.232   0.252   0.079   0.249
              0.023   0.015   0.002   0.015   0.024
   7  1.998   0.251   0.244   0.226   0.388   0.229   0.254   0.080   0.247
              0.024   0.015   0.002   0.015   0.024
   8  1.888   0.173   0.279   0.082   0.389   0.236   0.347   0.074   0.247
              0.018   0.004   0.001   0.016   0.022
  11  1.906   0.184   0.276   0.081   0.405   0.252   0.345   0.066   0.236
[...]
        111.76 112.59 113.56 116.86 118.93 120.93 121.42 123.89 130.63 131.49
        132.95 136.61 139.67 141.38 153.24 154.40
  49  1 -21.99 -21.85 -20.68 -20.53 -19.35 -19.20 -18.79 -18.70 -17.97 -17.57
        -17.03 -15.87 -15.12 -14.87 -14.73 -13.83 -13.75 -13.64 -13.14 -12.87
        -12.28 -11.48 -11.47 -11.24 -10.68 -10.57 -10.16 -10.03  -9.74  -9.72
         -9.66  -9.56  -9.43  -9.12  -8.95  -8.74  -8.55  -8.28  -8.00  -7.59
         -7.50  -7.14  -6.97  -6.85  -6.56  -5.96  -5.20  -4.86  -2.19  -1.82
         -1.18  -0.39  -0.24   0.18   0.40   1.97   2.30   2.47   2.65   2.65
          2.67   3.90   4.05   4.48   4.60   5.20   5.46   5.53   5.59   5.66
          5.91   6.13   6.55   6.57   6.87   7.23   7.99   8.39   8.52   8.54
          8.74   8.75   8.87   8.95   9.47   9.58   9.62   9.77   9.94  10.41
         10.53  10.74  10.87  11.07  11.18  11.25  11.36  11.44  11.56  11.58
         11.69  11.82  12.04  12.14  12.41  12.41  12.59  12.76  12.88  12.93
         12.99  13.22  13.51  13.58  13.58  13.61  13.79  14.09  14.11  14.25
         14.55  14.67  15.33  15.59  16.24  16.30  16.69  16.90  17.37  17.77
         17.91  18.03  18.32  18.39  18.40  18.73  18.92  19.08  19.10  19.23
         19.31  19.34  19.68  20.05  20.20  20.43  20.61  20.80  20.82  21.08
         21.16  21.48  21.61  21.62  21.63  21.70  21.90  21.94  22.15  22.27
         22.52  22.61  23.09  23.15  23.49  23.56  23.94  24.16  24.30  24.66
         24.95  25.13  25.47  25.68  25.83  27.12  27.84  28.03  28.96  29.85
         30.28  30.81  31.04  31.21  31.54  32.09  32.61  32.68  32.81  33.26
         33.33  33.81  34.08  34.34  34.88  34.90  35.23  35.77  36.50  36.76
         37.83  37.90  37.97  38.10  38.61  39.88  40.21  40.43  40.56  41.36
         42.54  42.78  43.02  44.00  44.17  44.34  44.83  45.04  45.23  45.87
         46.50  47.10  47.16  47.70  47.81  47.94  48.67  49.04  49.46  50.09
         50.15  50.85  50.85  51.07  51.30  51.54  52.14  52.66  53.11  53.27
         53.91  54.01  54.23  54.34  55.05  55.42  55.58  56.13  56.22  56.35
         56.63  56.95  58.15  58.60  58.60  59.66  59.85  60.06  60.27  60.90
         61.03  61.47  62.61  62.76  63.48  63.64  63.92  64.64  66.05  66.56
         67.45  67.85  70.03  70.45  71.65  71.76  72.56  72.94  73.03  74.01
         74.82  75.86  76.76  77.05  77.96  78.16  78.35  78.54  80.91  82.21
         82.58  83.05  83.41  84.29  85.91  87.30  87.92  89.76  92.53  92.88
         95.54  96.29  98.35  99.14 100.01 100.65 104.93 105.11 105.86 107.06
        111.95 112.58 113.53 116.69 119.16 121.02 121.20 123.84 131.03 131.52
        132.63 136.59 139.75 141.26 153.42 154.23
  49  2 -21.99 -21.85 -20.68 -20.53 -19.35 -19.20 -18.79 -18.70 -17.97 -17.57
        -17.03 -15.87 -15.12 -14.87 -14.73 -13.83 -13.75 -13.64 -13.14 -12.87
        -12.28 -11.48 -11.47 -11.24 -10.68 -10.57 -10.16 -10.03  -9.74  -9.72
         -9.66  -9.56  -9.43  -9.12  -8.95  -8.74  -8.55  -8.28  -8.00  -7.59
         -7.50  -7.14  -6.97  -6.85  -6.56  -5.96  -5.20  -4.86  -2.19  -1.82
         -1.18  -0.39  -0.24   0.18   0.40   1.97   2.30   2.47   2.65   2.65
          2.67   3.90   4.05   4.48   4.60   5.20   5.46   5.53   5.59   5.66
          5.91   6.13   6.55   6.57   6.87   7.23   7.99   8.39   8.52   8.54
          8.74   8.75   8.87   8.95   9.47   9.58   9.62   9.77   9.94  10.41
         10.53  10.74  10.87  11.07  11.18  11.25  11.36  11.44  11.56  11.58
         11.69  11.82  12.04  12.14  12.41  12.41  12.59  12.76  12.88  12.93
         12.99  13.22  13.51  13.58  13.58  13.61  13.79  14.09  14.11  14.25
         14.55  14.67  15.33  15.59  16.24  16.30  16.69  16.90  17.37  17.77
         17.91  18.03  18.32  18.39  18.40  18.73  18.92  19.08  19.10  19.23
         19.31  19.34  19.68  20.05  20.20  20.43  20.61  20.80  20.82  21.08
         21.16  21.48  21.61  21.62  21.63  21.70  21.90  21.94  22.15  22.27
         22.52  22.61  23.09  23.15  23.49  23.56  23.94  24.16  24.30  24.66
         24.95  25.13  25.47  25.68  25.83  27.12  27.84  28.03  28.96  29.85
         30.28  30.81  31.04  31.21  31.54  32.09  32.61  32.68  32.81  33.26
         33.33  33.81  34.08  34.34  34.88  34.90  35.23  35.77  36.50  36.76
         37.83  37.90  37.97  38.10  38.61  39.88  40.21  40.43  40.56  41.36
         42.54  42.78  43.02  44.00  44.17  44.34  44.83  45.04  45.23  45.87
         46.50  47.10  47.16  47.70  47.81  47.94  48.67  49.04  49.46  50.09
         50.15  50.85  50.85  51.07  51.30  51.54  52.14  52.66  53.11  53.27
         53.91  54.01  54.23  54.34  55.05  55.42  55.58  56.13  56.22  56.35
         56.63  56.95  58.15  58.60  58.60  59.66  59.85  60.06  60.27  60.90
         61.03  61.47  62.61  62.76  63.48  63.64  63.92  64.64  66.05  66.56
         67.45  67.85  70.03  70.45  71.65  71.76  72.56  72.94  73.03  74.01
         74.82  75.86  76.76  77.05  77.96  78.16  78.35  78.54  80.91  82.21
         82.58  83.05  83.41  84.29  85.91  87.30  87.92  89.76  92.53  92.88
         95.54  96.29  98.35  99.14 100.01 100.65 104.93 105.11 105.86 107.06
        111.95 112.58 113.53 116.69 119.16 121.02 121.20 123.84 131.03 131.52
        132.63 136.59 139.75 141.26 153.42 154.23
  50  1 -21.98 -21.85 -20.67 -20.53 -19.32 -19.23 -18.79 -18.71 -17.96 -17.58
        -17.02 -15.87 -15.12 -14.85 -14.75 -13.81 -13.75 -13.67 -13.14 -12.88
        -12.28 -11.48 -11.46 -11.24 -10.66 -10.60 -10.15 -10.04  -9.73  -9.72
         -9.66  -9.56  -9.43  -9.12  -8.95  -8.74  -8.55  -8.27  -8.01  -7.58
         -7.51  -7.10  -7.01  -6.85  -6.56  -5.96  -5.20  -4.87  -2.18  -1.81
         -1.18  -0.39  -0.24   0.23   0.35   1.97   2.30   2.48   2.64   2.65
          2.67   3.90   4.05   4.48   4.59   5.20   5.49   5.53   5.56   5.67
          5.90   6.13   6.55   6.57   6.87   7.23   8.00   8.39   8.51   8.55
          8.74   8.75   8.88   8.93   9.50   9.56   9.63   9.74   9.93  10.41
         10.52  10.74  10.88  11.09  11.15  11.26  11.36  11.44  11.56  11.58
         11.69  11.82  12.05  12.12  12.41  12.41  12.60  12.77  12.88  12.93
         13.00  13.21  13.51  13.58  13.59  13.60  13.78  14.09  14.11  14.25
         14.55  14.67  15.33  15.59  16.24  16.30  16.69  16.90  17.37  17.77
         17.92  18.03  18.32  18.39  18.39  18.72  18.92  19.08  19.10  19.23
         19.31  19.34  19.69  20.06  20.20  20.43  20.61  20.80  20.82  21.08
         21.16  21.49  21.61  21.63  21.63  21.69  21.91  21.93  22.16  22.27
         22.52  22.61  23.09  23.14  23.49  23.56  23.94  24.20  24.27  24.65
         24.95  25.12  25.47  25.68  25.83  27.13  27.88  28.00  28.97  29.85
         30.27  30.81  31.04  31.21  31.54  32.09  32.61  32.68  32.80  33.25
         33.33  33.84  34.05  34.35  34.87  34.90  35.23  35.78  36.50  36.75
         37.85  37.89  37.97  38.09  38.61  39.87  40.21  40.45  40.53  41.37
         42.54  42.78  43.01  44.01  44.20  44.34  44.84  45.02  45.22  45.87
         46.50  47.12  47.15  47.69  47.81  47.93  48.66  49.06  49.44  50.10
         50.15  50.86  50.87  51.10  51.27  51.52  52.15  52.67  53.11  53.25
         53.97  54.00  54.23  54.31  55.04  55.45  55.58  56.13  56.17  56.34
         56.64  56.96  58.14  58.60  58.61  59.67  59.85  60.07  60.25  60.92
         61.01  61.47  62.63  62.74  63.48  63.65  63.92  64.65  66.06  66.57
         67.45  67.85  70.03  70.44  71.68  71.76  72.56  72.94  73.00  74.01
         74.82  75.86  76.77  77.04  77.96  78.21  78.30  78.54  80.94  82.22
         82.57  83.04  83.42  84.29  85.90  87.32  87.94  89.76  92.52  92.82
         95.62  96.25  98.35  99.24  99.92 100.63 104.98 105.10 105.81 107.05
        112.09 112.56 113.51 116.58 119.32 121.00 121.12 123.81 131.33 131.62
        132.29 136.58 139.80 141.18 153.59 154.07
  50  2 -21.98 -21.85 -20.67 -20.53 -19.32 -19.23 -18.79 -18.71 -17.96 -17.58
        -17.02 -15.87 -15.12 -14.85 -14.75 -13.81 -13.75 -13.67 -13.14 -12.88
        -12.28 -11.48 -11.46 -11.24 -10.66 -10.60 -10.15 -10.04  -9.73  -9.72
         -9.66  -9.56  -9.43  -9.12  -8.95  -8.74  -8.55  -8.27  -8.01  -7.58
         -7.51  -7.10  -7.01  -6.85  -6.56  -5.96  -5.20  -4.87  -2.18  -1.81
         -1.18  -0.39  -0.24   0.23   0.35   1.97   2.30   2.48   2.64   2.65
          2.67   3.90   4.05   4.48   4.59   5.20   5.49   5.53   5.56   5.67
          5.90   6.13   6.55   6.57   6.87   7.23   8.00   8.39   8.51   8.55
          8.74   8.75   8.88   8.93   9.50   9.56   9.63   9.74   9.93  10.41
         10.52  10.74  10.88  11.09  11.15  11.26  11.36  11.44  11.56  11.58
         11.69  11.82  12.05  12.12  12.41  12.41  12.60  12.77  12.88  12.93
         13.00  13.21  13.51  13.58  13.59  13.60  13.78  14.09  14.11  14.25
         14.55  14.67  15.33  15.59  16.24  16.30  16.69  16.90  17.37  17.77
         17.92  18.03  18.32  18.39  18.39  18.72  18.92  19.08  19.10  19.23
         19.31  19.34  19.69  20.06  20.20  20.43  20.61  20.80  20.82  21.08
         21.16  21.49  21.61  21.63  21.63  21.69  21.91  21.93  22.16  22.27
         22.52  22.61  23.09  23.14  23.49  23.56  23.94  24.20  24.27  24.65
         24.95  25.12  25.47  25.68  25.83  27.13  27.88  28.00  28.97  29.85
         30.27  30.81  31.04  31.21  31.54  32.09  32.61  32.68  32.80  33.25
         33.33  33.84  34.05  34.35  34.87  34.90  35.23  35.78  36.50  36.75
         37.85  37.89  37.97  38.09  38.61  39.87  40.21  40.45  40.53  41.37
         42.54  42.78  43.01  44.01  44.20  44.34  44.84  45.02  45.22  45.87
         46.50  47.12  47.15  47.69  47.81  47.93  48.66  49.06  49.44  50.10
         50.15  50.86  50.87  51.10  51.27  51.52  52.15  52.67  53.11  53.25
         53.97  54.00  54.23  54.31  55.04  55.45  55.58  56.13  56.17  56.34
         56.64  56.96  58.14  58.60  58.61  59.67  59.85  60.07  60.25  60.92
         61.01  61.47  62.63  62.74  63.48  63.65  63.92  64.65  66.06  66.57
         67.45  67.85  70.03  70.44  71.68  71.76  72.56  72.94  73.00  74.01
         74.82  75.86  76.77  77.04  77.96  78.21  78.30  78.54  80.94  82.22
         82.57  83.04  83.42  84.29  85.90  87.32  87.94  89.76  92.52  92.82
         95.62  96.25  98.35  99.24  99.92 100.63 104.98 105.10 105.81 107.05
        112.09 112.56 113.51 116.58 119.32 121.00 121.12 123.81 131.33 131.62
        132.29 136.58 139.80 141.18 153.59 154.07
  51  1 -21.98 -21.86 -20.67 -20.53 -19.29 -19.26 -18.78 -18.71 -17.96 -17.58
        -17.02 -15.87 -15.11 -14.84 -14.75 -13.80 -13.74 -13.68 -13.13 -12.89
        -12.28 -11.48 -11.46 -11.24 -10.63 -10.62 -10.15 -10.04  -9.73  -9.72
         -9.66  -9.56  -9.43  -9.11  -8.95  -8.74  -8.56  -8.27  -8.02  -7.57
         -7.52  -7.07  -7.04  -6.85  -6.56  -5.95  -5.20  -4.87  -2.18  -1.81
         -1.18  -0.39  -0.24   0.27   0.31   1.97   2.30   2.48   2.64   2.65
          2.66   3.90   4.05   4.48   4.59   5.20   5.52   5.53   5.53   5.67
          5.90   6.13   6.55   6.57   6.87   7.23   8.00   8.39   8.51   8.56
          8.73   8.75   8.89   8.91   9.51   9.56   9.64   9.73   9.93  10.41
         10.52  10.74  10.88  11.11  11.13  11.26  11.36  11.44  11.56  11.58
         11.69  11.82  12.06  12.11  12.41  12.41  12.60  12.77  12.88  12.93
         13.00  13.21  13.51  13.58  13.59  13.60  13.78  14.09  14.11  14.25
         14.55  14.67  15.33  15.59  16.24  16.30  16.69  16.90  17.37  17.77
         17.92  18.03  18.32  18.39  18.39  18.72  18.92  19.08  19.10  19.23
         19.31  19.34  19.69  20.06  20.19  20.43  20.62  20.80  20.83  21.08
         21.15  21.49  21.61  21.63  21.64  21.68  21.92  21.92  22.16  22.26
         22.52  22.61  23.09  23.14  23.50  23.56  23.94  24.23  24.24  24.65
         24.95  25.12  25.47  25.68  25.83  27.13  27.89  27.98  28.97  29.85
         30.27  30.81  31.04  31.21  31.54  32.09  32.61  32.68  32.80  33.25
         33.33  33.85  34.05  34.35  34.87  34.90  35.23  35.78  36.50  36.75
         37.86  37.89  37.97  38.08  38.60  39.87  40.21  40.46  40.52  41.37
         42.55  42.79  43.00  44.01  44.21  44.34  44.85  45.01  45.22  45.87
         46.50  47.13  47.14  47.69  47.81  47.93  48.66  49.06  49.43  50.10
         50.15  50.86  50.88  51.11  51.26  51.51  52.15  52.67  53.11  53.25
         53.99  54.00  54.23  54.29  55.04  55.47  55.58  56.13  56.14  56.34
         56.64  56.96  58.14  58.60  58.62  59.67  59.86  60.07  60.25  60.93
         61.00  61.47  62.64  62.73  63.48  63.65  63.92  64.65  66.06  66.57
         67.45  67.85  70.03  70.44  71.69  71.76  72.56  72.94  72.98  74.01
         74.82  75.86  76.78  77.03  77.96  78.25  78.27  78.54  80.95  82.22
         82.57  83.03  83.42  84.29  85.90  87.32  87.94  89.76  92.52  92.80
         95.64  96.23  98.34  99.29  99.88 100.63 105.00 105.10 105.78 107.05
        112.15 112.55 113.50 116.55 119.38 120.95 121.13 123.80 131.40 131.85
        132.00 136.57 139.82 141.15 153.68 153.98
  51  2 -21.98 -21.86 -20.67 -20.53 -19.29 -19.26 -18.78 -18.71 -17.96 -17.58
        -17.02 -15.87 -15.11 -14.84 -14.75 -13.80 -13.74 -13.68 -13.13 -12.89
        -12.28 -11.48 -11.46 -11.24 -10.63 -10.62 -10.15 -10.04  -9.73  -9.72
         -9.66  -9.56  -9.43  -9.11  -8.95  -8.74  -8.56  -8.27  -8.02  -7.57
         -7.52  -7.07  -7.04  -6.85  -6.56  -5.95  -5.20  -4.87  -2.18  -1.81
         -1.18  -0.39  -0.24   0.27   0.31   1.97   2.30   2.48   2.64   2.65
          2.66   3.90   4.05   4.48   4.59   5.20   5.52   5.53   5.53   5.67
          5.90   6.13   6.55   6.57   6.87   7.23   8.00   8.39   8.51   8.56
          8.73   8.75   8.89   8.91   9.51   9.56   9.64   9.73   9.93  10.41
         10.52  10.74  10.88  11.11  11.13  11.26  11.36  11.44  11.56  11.58
         11.69  11.82  12.06  12.11  12.41  12.41  12.60  12.77  12.88  12.93
         13.00  13.21  13.51  13.58  13.59  13.60  13.78  14.09  14.11  14.25
         14.55  14.67  15.33  15.59  16.24  16.30  16.69  16.90  17.37  17.77
         17.92  18.03  18.32  18.39  18.39  18.72  18.92  19.08  19.10  19.23
         19.31  19.34  19.69  20.06  20.19  20.43  20.62  20.80  20.83  21.08
         21.15  21.49  21.61  21.63  21.64  21.68  21.92  21.92  22.16  22.26
         22.52  22.61  23.09  23.14  23.50  23.56  23.94  24.23  24.24  24.65
         24.95  25.12  25.47  25.68  25.83  27.13  27.89  27.98  28.97  29.85
         30.27  30.81  31.04  31.21  31.54  32.09  32.61  32.68  32.80  33.25
         33.33  33.85  34.05  34.35  34.87  34.90  35.23  35.78  36.50  36.75
         37.86  37.89  37.97  38.08  38.60  39.87  40.21  40.46  40.52  41.37
         42.55  42.79  43.00  44.01  44.21  44.34  44.85  45.01  45.22  45.87
         46.50  47.13  47.14  47.69  47.81  47.93  48.66  49.06  49.43  50.10
         50.15  50.86  50.88  51.11  51.26  51.51  52.15  52.67  53.11  53.25
         53.99  54.00  54.23  54.29  55.04  55.47  55.58  56.13  56.14  56.34
         56.64  56.96  58.14  58.60  58.62  59.67  59.86  60.07  60.25  60.93
         61.00  61.47  62.64  62.73  63.48  63.65  63.92  64.65  66.06  66.57
         67.45  67.85  70.03  70.44  71.69  71.76  72.56  72.94  72.98  74.01
         74.82  75.86  76.78  77.03  77.96  78.25  78.27  78.54  80.95  82.22
         82.57  83.03  83.42  84.29  85.90  87.32  87.94  89.76  92.52  92.80
         95.64  96.23  98.34  99.29  99.88 100.63 105.00 105.10 105.78 107.05
        112.15 112.55 113.50 116.55 119.38 120.95 121.13 123.80 131.40 131.85
        132.00 136.57 139.82 141.15 153.68 153.98
siesta: Fermi energy =      -3.552453 eV

siesta: Program's energy decomposition (eV):
siesta: Ebs     =     -1174.614495
siesta: Eions   =      5773.097056
siesta: Ena     =      1214.296739
siesta: Ekin    =      2542.561026
siesta: Enl     =      -345.802003
siesta: Eso     =         0.000000
siesta: Eldau   =         0.000000
siesta: DEna    =       -72.115677
siesta: DUscf   =         7.442732
siesta: DUext   =         0.000000
siesta: Enegf   =         0.000000
siesta: Exc     =     -1111.946498
siesta: eta*DQ  =         0.000000
siesta: Emadel  =         0.000000
siesta: Emeta   =         0.000000
siesta: Emolmec =         0.000000
siesta: Ekinion =         0.000000
siesta: Eharris =     -3538.660737
siesta: Etot    =     -3538.660737
siesta: FreeEng =     -3538.660739

siesta: Final energy (eV):
siesta:  Band Struct. =   -1174.614495
siesta:       Kinetic =    2542.561026
siesta:       Hartree =   26554.820166
siesta:       Eldau   =       0.000000
siesta:       Eso     =       0.000000
siesta:    Ext. field =       0.000000
siesta:       Enegf   =       0.000000
siesta:   Exch.-corr. =   -1111.946498
siesta:  Ion-electron =  -55373.138457
siesta:       Ion-ion =   23849.043025
siesta:       Ekinion =       0.000000
siesta:         Total =   -3538.660737
siesta:         Fermi =      -3.552453

siesta: Stress tensor (static) (eV/Ang**3):
siesta:    -0.000180    0.000000   -0.000000
siesta:     0.000000    0.000001    0.000000
siesta:    -0.000000    0.000000    0.000002

siesta: Cell volume =       8870.000000 Ang**3

siesta: Pressure (static):
siesta:                Solid            Molecule  Units
siesta:           0.00000065          0.00000065  Ry/Bohr**3
siesta:           0.00005931          0.00005948  eV/Ang**3
siesta:           0.09502491          0.09530101  kBar
(Free)E+ p_basis*V_orbitals  =       -3530.311791
(Free)Eharris+ p_basis*V_orbitals  =       -3530.311791

siesta: Total spin polarization (Qup-Qdown) =   -0.000000

siesta: Electric dipole (a.u.)  =   -0.000000   -0.000041   -0.000000
siesta: Electric dipole (Debye) =   -0.000000   -0.000104   -0.000000

Hirshfeld Net Atomic Populations:
Atom #    Qatom  Species
     1    0.026  H.ca                
     2    0.003  C.ca2               
     3    0.029  H.ca                
     4   -0.037  C.ca2               
     5    0.004  C.ca2               
     6    0.001  C.ca2               
     7    0.003  C.ca2               
     8   -0.033  C.ca2               
     9    0.029  H.ca                
    10    0.033  H.ca                
    11   -0.036  C.ca2               
    12    0.006  C.ca2               
    13    0.002  C.ca2               
    14    0.002  C.ca2               
    15    0.006  C.ca2               
    16   -0.036  C.ca2               
    17   -0.033  C.ca2               
    18   -0.034  C.ca2               
    19    0.003  C.ca2               
    20    0.001  C.ca2               
    21    0.004  C.ca2               
    22   -0.037  C.ca2               
    23    0.033  H.ca                
    24    0.029  H.ca                
    25    0.004  C.ca2               
    26    0.003  C.ca2               
    27    0.004  C.ca2               
    28    0.029  H.ca                
    29   -0.034  C.ca2               
    30    0.026  H.ca                

Voronoi Net Atomic Populations:
Atom #    Qatom  Species
     1    0.005  H.ca                
     2    0.002  C.ca2               
     3    0.005  H.ca                
     4   -0.016  C.ca2               
     5    0.004  C.ca2               
     6    0.006  C.ca2               
     7    0.005  C.ca2               
     8   -0.008  C.ca2               
     9    0.005  H.ca                
    10    0.008  H.ca                
    11   -0.013  C.ca2               
    12    0.007  C.ca2               
    13   -0.001  C.ca2               
    14    0.001  C.ca2               
    15    0.007  C.ca2               
    16   -0.015  C.ca2               
    17   -0.008  C.ca2               
    18   -0.008  C.ca2               
    19    0.004  C.ca2               
    20   -0.001  C.ca2               
    21    0.007  C.ca2               
    22   -0.015  C.ca2               
    23    0.008  H.ca                
    24    0.005  H.ca                
    25    0.004  C.ca2               
    26    0.003  C.ca2               
    27   -0.004  C.ca2               
    28    0.004  H.ca                
    29   -0.008  C.ca2               
    30    0.006  H.ca                
>> End of run:  18-APR-2018  17:57:18
Job completed
Job completed
