Siesta Version  : siesta-4.1--852
Architecture    : unknown
Compiler version: ifort (IFORT) 17.0.4 20170411
Compiler flags  : mpiifort -O1 -xHost -mp1 -fpp -ftz -I/scicomp/easybuild/CentOS/7.3.1611/Hasweell/software/imkl/2017.3.196-iimpi-2017b/mkl/include -I/scratch/scicomp/easybuild/CentOS/7.3.1611/Haswell/software/netCDF-Fortran/4.4.4-intel-2017b/include -I/scratch/scicomp/easybuild/CentOS/7.3.1611/Haswell/software/netCDF/4.4.1.1-intel-2017b/include
PP flags        :  -DFC_HAVE_ABORT -DMPI -DCDF -DNCDF -DNCDF_4 -DGRID_DP -DNCDF_PARALLEL
Libraries       : libncdf.a libfdict.a -L/scratch/scicomp/easybuild/CentOS/7.3.1611/Haswell/sofftware/netCDF-Fortran/4.4.4-intel-2017b/lib -lnetcdff -L/scratch/scicomp/easybuild/CentOS/7.3.1611/Haswell/software/cURL/7.56.0-GCCcore-6.4.0/lib -lcurl -L/scratch/scicomp/easybuild/CentOS/7.3.1611/Haswell/software/netCDF/4.4.1.1-intel-2017b/lib64 -lnetcdf -L/scratch/scicomp/easybuild/CentOS/7.3.1611/Haswell/software/HDF5/1.10.1-intel-2017b/lib -lhdf5hl_fortran -lhdf5_fortran -lhdf5_hl -lhdf5 -L/scratch/scicomp/easybuild/CentOS/7.3.1611/Haswell/software/Szip/2.1.1-GCCcore-6.4.0/lib -lsz -L/scratch/scicomp/easybuild/CentOS/7.3.1611/Haswell/software/zlib/1.2.11-GCCcore-6.4.0/lib -lz /scicomp/easybuild/CentOS/7.3.1611/Haswell/software/imkl/2017.3.196-iimpi-2017b/mkl/lib/intel64/libmkl_scalapack_lp64.a -Wl,--start-group /scicomp/easybuild/CentOS/7.3.1611/Haswell/software/imkl/2017.3.196-iimpi-2017b/mkl/lib/intel64/libmkl_intel_lp64.a /scicomp/easybuild/CentOS/7.3.1611/Haswell/software/imkl/2017.3.196-iimpi-2017b/mkl/lib/intel64/libmkl_sequential.a /scicomp/easybuild/CentOS/7.3.1611/Haswell/software/imkl/2017.3.196-iimpi-2017b/mkl/lib/intel64/libmkl_core.a /scicomp/easybuild/CentOS/7.3.1611/Haswell/software/imkl/2017.3.196-iimpi-2017b/mkl/lib/intel64/libmkl_blacs_intelmpi_lp64.a -Wl,--end-group -lpthread -lm -ldl
PARALLEL version
NetCDF support
NetCDF-4 support
NetCDF-4 MPI-IO support

* Running on 24 nodes in parallel
>> Start of run:  26-MAR-2018  12:40:18

                           ***********************       
                           *  WELCOME TO SIESTA  *       
                           ***********************       

reinit: Reading from standard input
reinit: Dumped input in INPUT_TMP.26320
************************** Dump of input data file ****************************
SystemTitle molecule
SystemLabel molecule
SolutionMethod     diagon
TS.HS.Save         true
MD.TypeOfRun  CG
MD.TypeOfRun  Broyden
MD.Broyden.Cycle.On.Maxit F
MD.NumCGsteps  1000
MD.MaxForceTol 0.002 eV/Ang
Diag.ParallelOverK true
%block kgrid_Monkhorst_Pack
 100    0    0    0.0
  0    1    0    0.0
  0    0    1    0.0
%endblock kgrid_Monkhorst_Pack
MaxSCFIterations      3000
SCFMustConverge       true
DM.Tolerance          1.d-5
DM.UseSaveDM          true
DM.NumberPulay	      7
DM.MixingWeight       0.1
MD.UseSaveXV          true
XC.functional         GGA
XC.authors     	      PBE
MeshCutoff            400. Ry
PAO.BasisSize   DZP
PAO.BasisType   split
%block ChemicalSpeciesLabel
    1   1 H.mpn
    2   6 C.mpn
%endblock ChemicalSpeciesLabel
%include STRUCT.fdf
SpinPolarized   true
#FixSpin  true
#Spin.Fix true
#Spin.Total 0
#TotalSpin  0
%block DM.InitSpin
26   1.
11  -1.
%endblock DM.InitSpin
WriteMullikenPop 1
WriteHirshfeldPop true
WriteVoronoiPop true
WriteEigenvalues true
WriteWaveFunctions true
************************** End of input data file *****************************

reinit: -----------------------------------------------------------------------
reinit: System Name: 
reinit: -----------------------------------------------------------------------
reinit: System Label: molecule
reinit: -----------------------------------------------------------------------

initatom: Reading input for the pseudopotentials and atomic orbitals ----------
Species number:   1 Atomic number:    1 Label: H.mpn
Species number:   2 Atomic number:    6 Label: C.mpn
 
Ground state valence configuration:   1s01
Reading pseudopotential information in unformatted form from H.mpn.vps

Pseudopotential generated from a relativistic atomic calculation

Valence configuration for pseudopotential generation:
1s( 1.00) rc: 1.25
2p( 0.00) rc: 1.25
3d( 0.00) rc: 1.25
4f( 0.00) rc: 1.19
Ground state valence configuration:   2s02  2p02
Reading pseudopotential information in unformatted form from C.mpn.vps

Pseudopotential generated from a relativistic atomic calculation

Valence configuration for pseudopotential generation:
2s( 2.00) rc: 1.25
2p( 2.00) rc: 1.25
3d( 0.00) rc: 1.98
4f( 0.00) rc: 1.98
For H.mpn, standard SIESTA heuristics set lmxkb to 2
 (one more than the basis l, including polarization orbitals).
Use PS.lmax or PS.KBprojectors blocks to override.
For C.mpn, standard SIESTA heuristics set lmxkb to 3
 (one more than the basis l, including polarization orbitals).
Use PS.lmax or PS.KBprojectors blocks to override.

<basis_specs>
===============================================================================
H.mpn                Z=   1    Mass=  1.0100        Charge= 0.17977+309
Lmxo=0 Lmxkb= 2    BasisType=split      Semic=F
L=0  Nsemic=0  Cnfigmx=1
          n=1  nzeta=2  polorb=1
            splnorm:   0.15000    
               vcte:    0.0000    
               rinn:    0.0000    
               qcoe:    0.0000    
               qyuk:    0.0000    
               qwid:   0.10000E-01
                rcs:    0.0000      0.0000    
            lambdas:    1.0000      1.0000    
-------------------------------------------------------------------------------
L=0  Nkbl=1  erefs: 0.17977+309
L=1  Nkbl=1  erefs: 0.17977+309
L=2  Nkbl=1  erefs: 0.17977+309
===============================================================================
</basis_specs>

atom: Called for H.mpn                 (Z =   1)

read_vps: Pseudopotential generation method:
read_vps: ATM3      Troullier-Martins                       
Total valence charge:    1.00000

xc_check: Exchange-correlation functional:
xc_check: GGA Perdew, Burke & Ernzerhof 1996
V l=0 = -2*Zval/r beyond r=  1.2343
V l=1 = -2*Zval/r beyond r=  1.2189
V l=2 = -2*Zval/r beyond r=  1.2189
All V_l potentials equal beyond r=  1.2343
This should be close to max(r_c) in ps generation
All pots = -2*Zval/r beyond r=  1.2343

VLOCAL1: 99.0% of the norm of Vloc inside     28.493 Ry
VLOCAL1: 99.9% of the norm of Vloc inside     64.935 Ry
atom: Maximum radius for 4*pi*r*r*local-pseudopot. charge    1.45251
atom: Maximum radius for r*vlocal+2*Zval:    1.21892
GHOST: No ghost state for L =  0
GHOST: No ghost state for L =  1
GHOST: No ghost state for L =  2

KBgen: Kleinman-Bylander projectors: 
   l= 0   rc=  1.398961   el= -0.477184   Ekb= -2.022489   kbcos= -0.344760
   l= 1   rc=  1.730774   el=  0.001076   Ekb= -0.447448   kbcos= -0.022756
   l= 2   rc=  2.036604   el=  0.002010   Ekb= -0.163621   kbcos= -0.002660

KBgen: Total number of  Kleinman-Bylander projectors:    9
atom: -------------------------------------------------------------------------

atom: SANKEY-TYPE ORBITALS:
atom: Selected multiple-zeta basis: split     

SPLIT: Orbitals with angular momentum L= 0

SPLIT: Basis orbitals for state 1s

SPLIT: PAO cut-off radius determined from an
SPLIT: energy shift=  0.020000 Ry

   izeta = 1
                 lambda =    1.000000
                     rc =    4.708991
                 energy =   -0.457736
                kinetic =    0.981128
    potential(screened) =   -1.438864
       potential(ionic) =   -1.967294

   izeta = 2
                 rmatch =    3.759707
              splitnorm =    0.150000
                 energy =   -0.338971
                kinetic =    1.585754
    potential(screened) =   -1.924724
       potential(ionic) =   -2.475189

POLgen: Perturbative polarization orbital with L=  1

POLgen: Polarization orbital for state 1s

   izeta = 1
                     rc =    4.708991
                 energy =    0.764910
                kinetic =    1.475806
    potential(screened) =   -0.710896
       potential(ionic) =   -1.203352
atom: Total number of Sankey-type orbitals:  5

atm_pop: Valence configuration (for local Pseudopot. screening):
 1s( 1.00)                                                            
Vna: chval, zval:    1.00000   1.00000

Vna:  Cut-off radius for the neutral-atom potential:   4.708991

atom: _________________________________________________________________________

<basis_specs>
===============================================================================
C.mpn                Z=   6    Mass=  12.010        Charge= 0.17977+309
Lmxo=1 Lmxkb= 3    BasisType=split      Semic=F
L=0  Nsemic=0  Cnfigmx=2
          n=1  nzeta=2  polorb=0
            splnorm:   0.15000    
               vcte:    0.0000    
               rinn:    0.0000    
               qcoe:    0.0000    
               qyuk:    0.0000    
               qwid:   0.10000E-01
                rcs:    0.0000      0.0000    
            lambdas:    1.0000      1.0000    
L=1  Nsemic=0  Cnfigmx=2
          n=1  nzeta=2  polorb=1
            splnorm:   0.15000    
               vcte:    0.0000    
               rinn:    0.0000    
               qcoe:    0.0000    
               qyuk:    0.0000    
               qwid:   0.10000E-01
                rcs:    0.0000      0.0000    
            lambdas:    1.0000      1.0000    
-------------------------------------------------------------------------------
L=0  Nkbl=1  erefs: 0.17977+309
L=1  Nkbl=1  erefs: 0.17977+309
L=2  Nkbl=1  erefs: 0.17977+309
L=3  Nkbl=1  erefs: 0.17977+309
===============================================================================
</basis_specs>

atom: Called for C.mpn                 (Z =   6)

read_vps: Pseudopotential generation method:
read_vps: ATM3      Troullier-Martins                       
Total valence charge:    4.00000

xc_check: Exchange-correlation functional:
xc_check: GGA Perdew, Burke & Ernzerhof 1996
V l=0 = -2*Zval/r beyond r=  1.5418
V l=1 = -2*Zval/r beyond r=  1.5418
V l=2 = -2*Zval/r beyond r=  1.9553
V l=3 = -2*Zval/r beyond r=  1.9310
All V_l potentials equal beyond r=  1.9310
This should be close to max(r_c) in ps generation
All pots = -2*Zval/r beyond r=  1.9553

VLOCAL1: 99.0% of the norm of Vloc inside     11.642 Ry
VLOCAL1: 99.9% of the norm of Vloc inside     26.531 Ry
atom: Maximum radius for 4*pi*r*r*local-pseudopot. charge    2.30035
atom: Maximum radius for r*vlocal+2*Zval:    2.00478
GHOST: No ghost state for L =  0
GHOST: No ghost state for L =  1
GHOST: No ghost state for L =  2
GHOST: No ghost state for L =  3

KBgen: Kleinman-Bylander projectors: 
   l= 0   rc=  2.134104   el= -1.010225   Ekb= 11.465766   kbcos=  0.116141
   l= 1   rc=  2.107589   el= -0.388560   Ekb= -6.457899   kbcos= -0.368830
   l= 2   rc=  2.300349   el=  0.001971   Ekb= -0.774314   kbcos= -0.017397
   l= 3   rc=  2.542323   el=  0.003065   Ekb= -0.308789   kbcos= -0.003148

KBgen: Total number of  Kleinman-Bylander projectors:   16
atom: -------------------------------------------------------------------------

atom: SANKEY-TYPE ORBITALS:
atom: Selected multiple-zeta basis: split     

SPLIT: Orbitals with angular momentum L= 0

SPLIT: Basis orbitals for state 2s

SPLIT: PAO cut-off radius determined from an
SPLIT: energy shift=  0.020000 Ry

   izeta = 1
                 lambda =    1.000000
                     rc =    4.088342
                 energy =   -0.989563
                kinetic =    0.944133
    potential(screened) =   -1.933696
       potential(ionic) =   -5.541314

   izeta = 2
                 rmatch =    3.347176
              splitnorm =    0.150000
                 energy =   -0.831414
                kinetic =    1.451472
    potential(screened) =   -2.282886
       potential(ionic) =   -6.119280

SPLIT: Orbitals with angular momentum L= 1

SPLIT: Basis orbitals for state 2p

SPLIT: PAO cut-off radius determined from an
SPLIT: energy shift=  0.020000 Ry

   izeta = 1
                 lambda =    1.000000
                     rc =    4.870301
                 energy =   -0.368749
                kinetic =    2.591962
    potential(screened) =   -2.960711
       potential(ionic) =   -6.464403

   izeta = 2
                 rmatch =    3.475094
              splitnorm =    0.150000
                 energy =   -0.206255
                kinetic =    3.888945
    potential(screened) =   -4.095199
       potential(ionic) =   -7.968192

POLgen: Perturbative polarization orbital with L=  2

POLgen: Polarization orbital for state 2p

   izeta = 1
                     rc =    4.870301
                 energy =    1.295231
                kinetic =    2.621946
    potential(screened) =   -1.326714
       potential(ionic) =   -4.277432
atom: Total number of Sankey-type orbitals: 13

atm_pop: Valence configuration (for local Pseudopot. screening):
 2s( 2.00)                                                            
 2p( 2.00)                                                            
Vna: chval, zval:    4.00000   4.00000

Vna:  Cut-off radius for the neutral-atom potential:   4.870301

atom: _________________________________________________________________________

prinput: Basis input ----------------------------------------------------------

PAO.BasisType split     

%block ChemicalSpeciesLabel
    1    1 H.mpn                   # Species index, atomic number, species label
    2    6 C.mpn                   # Species index, atomic number, species label
%endblock ChemicalSpeciesLabel

%block PAO.Basis                 # Define Basis set
H.mpn                 1                    # Species label, number of l-shells
 n=1   0   2 P   1                   # n, l, Nzeta, Polarization, NzetaPol
   4.709      3.760   
   1.000      1.000   
C.mpn                 2                    # Species label, number of l-shells
 n=2   0   2                         # n, l, Nzeta 
   4.088      3.347   
   1.000      1.000   
 n=2   1   2 P   1                   # n, l, Nzeta, Polarization, NzetaPol
   4.870      3.475   
   1.000      1.000   
%endblock PAO.Basis

prinput: ----------------------------------------------------------------------

Dumping basis to NetCDF file H.mpn.ion.nc
Dumping basis to NetCDF file C.mpn.ion.nc
coor:   Atomic-coordinates input format  =     Cartesian coordinates
coor:                                          (in Angstroms)

siesta: WARNING: XV file not found

siesta: Atomic coordinates (Bohr) and species
siesta:     22.72229  10.40297  18.89727  1        1
siesta:     21.17652  14.25992  18.89727  2        2
siesta:     27.05987   9.25916  18.89727  1        3
siesta:     23.11317  12.44845  18.89727  2        4
siesta:     25.68225  13.15718  18.89727  2        5
siesta:     21.80995  16.92751  18.89727  2        6
siesta:     24.38984  17.70164  18.89727  2        7
siesta:     23.13553  22.26670  18.89727  2        8
siesta:     22.38824  26.36399  18.89727  1        9
siesta:     31.55204   8.09369  18.89727  1       10
siesta:     27.58787  11.28016  18.89727  2       11
siesta:     30.14464  11.98464  18.89727  2       12
siesta:     26.32245  15.81972  18.89727  2       13
siesta:     28.90974  16.54913  18.89727  2       14
siesta:     25.03607  20.37023  18.89727  2       15
siesta:     27.63738  21.10931  18.89727  2       16
siesta:     23.84988  24.88872  18.89727  2       17
siesta:     26.34866  25.63758  18.89727  2       18
siesta:     32.10370  10.11548  18.89727  2       19
siesta:     34.60286  10.86419  18.89727  2       20
siesta:     30.81626  14.64492  18.89727  2       21
siesta:     33.41825  15.38351  18.89727  2       22
siesta:     29.54438  19.20511  18.89727  2       23
siesta:     32.13142  19.93453  18.89727  2       24
siesta:     28.30903  23.76938  18.89727  2       25
siesta:     30.86518  24.47371  18.89727  2       26
siesta:     26.90076  27.65925  18.89727  1       27
siesta:     36.06476   9.38937  18.89727  1       28
siesta:     35.31757  13.48641  18.89727  2       29
siesta:     34.06393  18.05229  18.89727  2       30
siesta:     36.64381  18.82558  18.89727  2       31
siesta:     32.77112  22.59698  18.89727  2       32
siesta:     35.34016  23.30529  18.89727  2       33
siesta:     31.39302  26.49460  18.89727  1       34
siesta:     37.27672  21.49333  18.89727  2       35
siesta:     35.73099  25.35086  18.89727  1       36

siesta: System type = chain     

initatomlists: Number of atoms, orbitals, and projectors:     36   404   520

siesta: ******************** Simulation parameters ****************************
siesta:
siesta: The following are some of the parameters of the simulation.
siesta: A complete list of the parameters used, including default values,
siesta: can be found in file out.fdf
siesta:
redata: Spin configuration                          = collinear
redata: Number of spin components                   = 2
redata: Time-Reversal Symmetry                      = T
redata: Spin-spiral                                 = F
redata: Long output                                 =   F
redata: Number of Atomic Species                    =        2
redata: Charge density info will appear in .RHO file
redata: Write Mulliken Pop.                         = Atomic and Orbital charges
redata: Mesh Cutoff                                 =   400.0000 Ry
redata: Net charge of the system                    =     0.0000 |e|
redata: Min. number of SCF Iter                     =        0
redata: Max. number of SCF Iter                     =     3000
redata: SCF convergence failure will abort job
redata: SCF mix quantity                            = Hamiltonian
redata: Mix DM or H after convergence               =   F
redata: Recompute H after scf cycle                 =   F
redata: Mix DM in first SCF step                    =   T
redata: Write Pulay info on disk                    =   F
redata: New DM Mixing Weight                        =     0.1000
redata: New DM Occupancy tolerance                  = 0.000000000001
redata: No kicks to SCF
redata: DM Mixing Weight for Kicks                  =     0.5000
redata: Require Harris convergence for SCF          =   F
redata: Harris energy tolerance for SCF             =     0.000100 eV
redata: Require DM convergence for SCF              =   T
redata: DM tolerance for SCF                        =     0.000010
redata: Require EDM convergence for SCF             =   F
redata: EDM tolerance for SCF                       =     0.001000 eV
redata: Require H convergence for SCF               =   T
redata: Hamiltonian tolerance for SCF               =     0.001000 eV
redata: Require (free) Energy convergence for SCF   =   F
redata: (free) Energy tolerance for SCF             =     0.000100 eV
redata: Antiferro initial spin density              =   F
redata: Using Saved Data (generic)                  =   F
redata: Use continuation files for DM               =   T
redata: Neglect nonoverlap interactions             =   F
redata: Method of Calculation                       = Diagonalization
redata: Electronic Temperature                      =   299.9869 K
redata: Fix the spin of the system                  =   F
redata: Dynamics option                             = CG coord. optimization
redata: Variable cell                               =   F
redata: Use continuation files for CG               =   F
redata: Max atomic displ per move                   =     0.1058 Ang
redata: Maximum number of CG moves                  =     1000
redata: Force tolerance                             =     0.0020 eV/Ang
mix.SCF: Pulay mixing                            = Pulay
mix.SCF:    Variant                              = stable
mix.SCF:    History steps                        = 7
mix.SCF:    Linear mixing weight                 =     0.100000
mix.SCF:    Mixing weight                        =     0.100000
mix.SCF:    SVD condition                        = 0.1000E-07
mix.SCF: Spin-component mixing                   all
redata: Save all siesta data in one NC              =   F
redata: ***********************************************************************

%block SCF.Mixers
  Pulay
%endblock SCF.Mixers

%block SCF.Mixer.Pulay
  # Mixing method
  method pulay
  variant stable

  # Mixing options
  weight 0.1000
  weight.linear 0.1000
  history 7
%endblock SCF.Mixer.Pulay
 
DM_history_depth set to one: no extrapolation allowed by default for geometry relaxation
Size of DM history Fstack: 1
Total number of electrons:   120.000000
Total ionic charge:   120.000000

* ProcessorY, Blocksize:    4  17


* Orbital distribution balance (max,min):    17    13

k-point displ. along   1 input, could be:     0.00    0.50
 Kpoints in:           51 . Kpoints trimmed:           51

siesta: k-grid: Number of k-points =    51
siesta: k-grid: Cutoff (effective) =    10.000 Ang
siesta: k-grid: Supercell and displacements
siesta: k-grid:  100   0   0      0.000
siesta: k-grid:    0   1   0      0.000
siesta: k-grid:    0   0   1      0.000
 
diag: Algorithm                                     = D&C
diag: Parallel over k                               =   T
diag: Use parallel 2D distribution                  =   T
diag: Parallel block-size                           = 17
diag: Parallel distribution                         =     4 x     6
diag: Used triangular part                          = Lower
diag: Absolute tolerance                            =  0.100E-15
diag: Orthogonalization factor                      =  0.100E-05
diag: Memory factor                                 =  1.0000

superc: Internal auxiliary supercell:     3 x     1 x     1  =       3
superc: Number of atoms, orbitals, and projectors:    108   1212   1560
 
 
ts: **************************************************************
ts: Save H and S matrices                           =    T
ts: Save DM and EDM matrices                        =    F
ts: Fix Hartree potential                           =    F
ts: Only save the overlap matrix S                  =    F
ts: **************************************************************
 
************************ Begin: TS CHECKS AND WARNINGS ************************
************************ End: TS CHECKS AND WARNINGS **************************


                     ====================================
                        Begin CG opt. move =      0
                     ====================================

superc: Internal auxiliary supercell:     3 x     1 x     1  =       3
superc: Number of atoms, orbitals, and projectors:    108   1212   1560

outcell: Unit cell vectors (Ang):
        8.970000    0.000000    0.000000
        0.000000   50.000000    0.000000
        0.000000    0.000000   20.000000

outcell: Cell vector modules (Ang)   :    8.970000   50.000000   20.000000
outcell: Cell angles (23,13,12) (deg):     90.0000     90.0000     90.0000
outcell: Cell volume (Ang**3)        :   8970.0000
<dSpData1D:S at geom step 0
  <sparsity:sparsity for geom step 0
    nrows_g=404 nrows=17 sparsity=.0494 nnzs=8065, refcount: 7>
  <dData1D:(new from dSpData1D) n=8065, refcount: 1>
refcount: 1>
new_DM -- step:     1
Initializing Density Matrix...
 
Attempting to read DM from file... Failed...
DM filled with atomic data (user-defined):
<dSpData2D:DM initialized from atoms
  <sparsity:sparsity for geom step 0
    nrows_g=404 nrows=17 sparsity=.0494 nnzs=8065, refcount: 8>
  <dData2D:DM n=8065 m=2, refcount: 1>
refcount: 1>

initDM: Initial spin polarization (Qup-Qdown) =    0.000000

No. of atoms with KB's overlaping orbs in proc 0. Max # of overlaps:      19     217
New grid distribution:   1
           1       1:   54    1:   80    1:   21
           2       1:   54    1:   80   22:   42
           3       1:   54    1:   80   43:   63
           4       1:   54    1:   80   64:   84
           5       1:   54    1:   80   85:  105
           6       1:   54    1:   80  106:  125
           7       1:   54   81:  160    1:   21
           8       1:   54   81:  160   22:   42
           9       1:   54   81:  160   43:   63
          10       1:   54   81:  160   64:   84
          11       1:   54   81:  160   85:  105
          12       1:   54   81:  160  106:  125
          13       1:   54  161:  240    1:   21
          14       1:   54  161:  240   22:   42
          15       1:   54  161:  240   43:   63
          16       1:   54  161:  240   64:   84
          17       1:   54  161:  240   85:  105
          18       1:   54  161:  240  106:  125
          19       1:   54  241:  320    1:   21
          20       1:   54  241:  320   22:   42
          21       1:   54  241:  320   43:   63
          22       1:   54  241:  320   64:   84
          23       1:   54  241:  320   85:  105
          24       1:   54  241:  320  106:  125

InitMesh: MESH =   108 x   640 x   250 =    17280000
InitMesh: (bp) =    54 x   320 x   125 =     2160000
InitMesh: Mesh cutoff (required, used) =   400.000   400.649 Ry
ExtMesh (bp) on 0 =   118 x   148 x    89 =     1554296
New grid distribution:   2
           1       1:   54    1:   38    1:   63
           2       1:   54   39:   48    1:   58
           3       1:   54   75:   79    1:   63
           4       1:   54   39:   48   59:   63
           5       1:   54   39:   48   68:  125
           6       1:   54   62:   66    1:   63
           7       1:   54   80:  320    1:   58
           8       1:   54   39:   48   64:   67
           9       1:   54   53:   61    1:   59
          10       1:   54   62:   66   64:  125
          11       1:   54   80:  320   68:  125
          12       1:   54   53:   61   60:   63
          13       1:   54    1:   38   64:  125
          14       1:   54   53:   61   68:  125
          15       1:   54   75:   79   64:  125
          16       1:   54   53:   61   64:   67
          17       1:   54   80:  320   64:   67
          18       1:   54   67:   74    1:   59
          19       1:   54   49:   52    1:   63
          20       1:   54   67:   74   64:   67
          21       1:   54   80:  320   59:   63
          22       1:   54   67:   74   68:  125
          23       1:   54   49:   52   64:  125
          24       1:   54   67:   74   60:   63
New grid distribution:   3
           1       1:   54    1:   26    1:   63
           2       1:   54   27:   41    1:   55
           3       1:   54   42:   48    1:   63
           4       1:   54   27:   41   64:   71
           5       1:   54    1:   26   64:  125
           6       1:   54   27:   41   72:  125
           7       1:   54   84:   90    1:   63
           8       1:   54   27:   41   56:   63
           9       1:   54   70:   83    1:   55
          10       1:   54   91:  320   64:   70
          11       1:   54   63:   69    1:   63
          12       1:   54   49:   62   56:   63
          13       1:   54   91:  320    1:   56
          14       1:   54   49:   62    1:   55
          15       1:   54   63:   69   64:  125
          16       1:   54   70:   83   56:   63
          17       1:   54   91:  320   71:  125
          18       1:   54   49:   62   72:  125
          19       1:   54   42:   48   64:  125
          20       1:   54   70:   83   64:   71
          21       1:   54   91:  320   57:   63
          22       1:   54   70:   83   72:  125
          23       1:   54   84:   90   64:  125
          24       1:   54   49:   62   64:   71
Setting up quadratic distribution...
ExtMesh (bp) on 0 =   118 x   106 x   131 =     1638548
PhiOnMesh: Number of (b)points on node 0 =               129276
PhiOnMesh: nlist on node 0 =               391165

stepf: Fermi-Dirac step function

siesta: Program's energy decomposition (eV):
siesta: Ebs     =     -1334.928035
siesta: Eions   =      5801.107167
siesta: Ena     =       588.996610
siesta: Ekin    =      3318.802650
siesta: Enl     =     -1049.875131
siesta: Eso     =         0.000000
siesta: Eldau   =         0.000000
siesta: DEna    =      -104.041251
siesta: DUscf   =        12.258260
siesta: DUext   =         0.000000
siesta: Enegf   =         0.000000
siesta: Exc     =     -1419.351302
siesta: eta*DQ  =         0.000000
siesta: Emadel  =         0.000000
siesta: Emeta   =         0.000000
siesta: Emolmec =         0.000000
siesta: Ekinion =         0.000000
siesta: Eharris =     -4484.683621
siesta: Etot    =     -4454.317331
siesta: FreeEng =     -4454.317340

        iscf     Eharris(eV)        E_KS(eV)     FreeEng(eV)     dDmax    Ef(eV) dHmax(eV)
   scf:    1    -4484.683621    -4454.317331    -4454.317340  0.965238 -4.954137  4.953864
timer: Routine,Calls,Time,% = IterSCF        1       4.860  59.94
   scf:    2    -4455.790176    -4455.089068    -4455.089079  0.008583 -4.685719  3.972691
   scf:    3    -4456.645248    -4456.253701    -4456.253723  0.037009 -3.544286  1.690195
   scf:    4    -4456.561943    -4456.457928    -4456.457955  0.014733 -3.321947  0.436561
   scf:    5    -4456.513384    -4456.492995    -4456.493030  0.010074 -3.217418  0.311677
   scf:    6    -4456.497531    -4456.495350    -4456.495385  0.000701 -3.233437  0.239071
   scf:    7    -4456.509030    -4456.503267    -4456.503307  0.003869 -3.282143  0.107764
   scf:    8    -4456.506528    -4456.504869    -4456.504912  0.001944 -3.294993  0.098342
   scf:    9    -4456.508500    -4456.506583    -4456.506632  0.002738 -3.282973  0.060753
   scf:   10    -4456.507877    -4456.507188    -4456.507240  0.001374 -3.286541  0.041077
   scf:   11    -4456.508361    -4456.507709    -4456.507765  0.001683 -3.287092  0.025583
   scf:   12    -4456.508022    -4456.507857    -4456.507915  0.000638 -3.287079  0.021686
   scf:   13    -4456.508550    -4456.508150    -4456.508213  0.001488 -3.287598  0.013639
   scf:   14    -4456.508483    -4456.508296    -4456.508362  0.000883 -3.287667  0.010059
   scf:   15    -4456.508513    -4456.508394    -4456.508462  0.000609 -3.287751  0.009361
   scf:   16    -4456.508929    -4456.508604    -4456.508677  0.001313 -3.287911  0.008236
   scf:   17    -4456.508909    -4456.508730    -4456.508807  0.000874 -3.287924  0.007633
   scf:   18    -4456.509455    -4456.508967    -4456.509051  0.001844 -3.288137  0.006857
   scf:   19    -4456.509317    -4456.509093    -4456.509181  0.001143 -3.288251  0.006256
   scf:   20    -4456.510180    -4456.509340    -4456.509438  0.002719 -3.288368  0.004849
   scf:   21    -4456.509971    -4456.509479    -4456.509584  0.001986 -3.288444  0.002968
   scf:   22    -4456.509913    -4456.509562    -4456.509671  0.001731 -3.288624  0.002746
   scf:   23    -4456.509717    -4456.509596    -4456.509707  0.001007 -3.288704  0.002505
   scf:   24    -4456.509690    -4456.509617    -4456.509729  0.000792 -3.288743  0.002268
   scf:   25    -4456.509646    -4456.509626    -4456.509738  0.000389 -3.288789  0.002087
   scf:   26    -4456.509649    -4456.509632    -4456.509745  0.000360 -3.288810  0.001783
   scf:   27    -4456.509664    -4456.509639    -4456.509753  0.000486 -3.288793  0.001230
   scf:   28    -4456.509648    -4456.509642    -4456.509755  0.000207 -3.288775  0.000941
   scf:   29    -4456.509648    -4456.509644    -4456.509757  0.000180 -3.288753  0.000710
   scf:   30    -4456.509647    -4456.509645    -4456.509759  0.000118 -3.288739  0.000562
   scf:   31    -4456.509649    -4456.509646    -4456.509760  0.000135 -3.288725  0.000539
   scf:   32    -4456.509648    -4456.509647    -4456.509761  0.000088 -3.288721  0.000478
   scf:   33    -4456.509651    -4456.509648    -4456.509762  0.000163 -3.288727  0.000385
   scf:   34    -4456.509653    -4456.509649    -4456.509763  0.000196 -3.288731  0.000305
   scf:   35    -4456.509654    -4456.509650    -4456.509764  0.000207 -3.288735  0.000207
   scf:   36    -4456.509654    -4456.509651    -4456.509765  0.000184 -3.288738  0.000156
   scf:   37    -4456.509653    -4456.509651    -4456.509765  0.000156 -3.288741  0.000132
   scf:   38    -4456.509652    -4456.509651    -4456.509765  0.000111 -3.288742  0.000102
   scf:   39    -4456.509652    -4456.509651    -4456.509765  0.000084 -3.288742  0.000063
   scf:   40    -4456.509651    -4456.509651    -4456.509765  0.000021 -3.288742  0.000041
   scf:   41    -4456.509651    -4456.509651    -4456.509765  0.000017 -3.288742  0.000029
   scf:   42    -4456.509651    -4456.509651    -4456.509765  0.000010 -3.288742  0.000025
   scf:   43    -4456.509651    -4456.509651    -4456.509765  0.000004 -3.288741  0.000019

SCF Convergence by DM+H criterion
max |DM_out - DM_in|         :     0.0000038640
max |H_out - H_in|      (eV) :     0.0000193375
SCF cycle converged after 43 iterations

Using DM_out to compute the final energy and forces
No. of atoms with KB's overlaping orbs in proc 0. Max # of overlaps:      19     217

siesta: E_KS(eV) =            -4456.5097

siesta: E_KS - E_eggbox =     -4456.5097

siesta: Total spin polarization (Qup-Qdown) =   -0.000000

siesta: Atomic forces (eV/Ang):
----------------------------------------
   Tot   -0.001357    0.022687   -0.000000
----------------------------------------
   Max    2.238414
   Res    0.533598    sqrt( Sum f_i^2 / 3N )
----------------------------------------
   Max    2.238414    constrained

Stress-tensor-Voigt (kbar):       -1.13        0.69        0.00       -0.02        0.00        0.00
(Free)E + p*V (eV/cell)    -4455.6858
Target enthalpy (eV/cell)    -4456.5098
 
mulliken: Atomic and Orbital Populations:

mulliken: Spin UP 

Species: H.mpn               
Atom  Qatom  Qorb
               1s      1s      1Ppy    1Ppz    1Ppx    
   1  0.618   0.416   0.151   0.023   0.017   0.011
   3  0.619   0.426   0.143   0.022   0.018   0.011
   9  0.618   0.421   0.146   0.017   0.017   0.018
  10  0.619   0.431   0.138   0.021   0.017   0.012
  27  0.619   0.431   0.138   0.021   0.017   0.012
  28  0.618   0.421   0.146   0.017   0.017   0.018
  34  0.619   0.426   0.143   0.022   0.018   0.011
  36  0.618   0.416   0.151   0.023   0.017   0.011

Species: C.mpn               
Atom  Qatom  Qorb
               2s      2s      2py     2pz     2px     2py     2pz     2px     
               2Pdxy   2Pdyz   2Pdz2   2Pdxz   2Pdx2-y2
   2  1.988   0.256   0.250   0.229   0.397   0.242   0.244   0.072   0.228
              0.019   0.015   0.001   0.014   0.022
   4  1.912   0.193   0.280   0.075   0.407   0.249   0.349   0.065   0.239
              0.015   0.004   0.001   0.015   0.020
   5  1.969   0.233   0.260   0.212   0.374   0.217   0.254   0.086   0.258
              0.021   0.014   0.001   0.016   0.021
   6  2.001   0.255   0.252   0.238   0.401   0.238   0.237   0.071   0.239
              0.022   0.014   0.001   0.014   0.020
   7  2.000   0.241   0.258   0.229   0.390   0.233   0.248   0.081   0.248
              0.021   0.015   0.001   0.015   0.021
   8  1.989   0.258   0.249   0.224   0.401   0.247   0.246   0.071   0.224
              0.020   0.014   0.001   0.013   0.021
  11  1.911   0.195   0.280   0.077   0.412   0.249   0.344   0.062   0.238
              0.015   0.004   0.001   0.015   0.019
  12  1.969   0.236   0.259   0.214   0.376   0.213   0.251   0.085   0.262
              0.021   0.014   0.001   0.016   0.021
  13  2.000   0.242   0.258   0.225   0.390   0.230   0.252   0.080   0.251
              0.021   0.014   0.001   0.015   0.021
  14  2.000   0.240   0.259   0.227   0.388   0.232   0.251   0.080   0.251
              0.021   0.015   0.001   0.015   0.021
  15  2.000   0.241   0.259   0.226   0.388   0.231   0.250   0.080   0.252
              0.020   0.015   0.001   0.015   0.022
  16  2.000   0.244   0.257   0.226   0.392   0.232   0.251   0.079   0.247
              0.021   0.014   0.001   0.014   0.021
  17  1.893   0.187   0.281   0.157   0.398   0.154   0.291   0.069   0.301
              0.022   0.010   0.001   0.010   0.013
  18  1.892   0.188   0.281   0.083   0.400   0.234   0.340   0.068   0.244
              0.016   0.004   0.001   0.015   0.019
  19  1.892   0.188   0.281   0.083   0.400   0.234   0.340   0.068   0.243
              0.016   0.004   0.001   0.015   0.019
  20  1.893   0.187   0.281   0.157   0.398   0.154   0.291   0.069   0.301
              0.022   0.010   0.001   0.010   0.013
  21  2.001   0.245   0.257   0.226   0.392   0.232   0.251   0.079   0.247
              0.021   0.014   0.001   0.014   0.021
  22  2.000   0.241   0.258   0.227   0.388   0.231   0.250   0.080   0.252
              0.020   0.015   0.001   0.015   0.022
  23  2.001   0.240   0.259   0.227   0.388   0.231   0.251   0.080   0.251
              0.021   0.015   0.001   0.015   0.021
  24  2.000   0.243   0.258   0.225   0.390   0.229   0.252   0.080   0.251
              0.021   0.014   0.001   0.015   0.021
  25  1.970   0.236   0.259   0.214   0.376   0.212   0.251   0.085   0.263
              0.021   0.014   0.001   0.016   0.021
  26  1.911   0.195   0.280   0.077   0.412   0.249   0.345   0.062   0.238
              0.015   0.004   0.001   0.015   0.019
  29  1.989   0.258   0.249   0.224   0.401   0.247   0.246   0.071   0.224
              0.020   0.014   0.001   0.013   0.021
  30  2.000   0.241   0.258   0.229   0.390   0.233   0.248   0.081   0.248
              0.021   0.015   0.001   0.015   0.021
  31  2.001   0.255   0.251   0.238   0.401   0.237   0.237   0.071   0.240
              0.022   0.014   0.001   0.014   0.020
  32  1.969   0.232   0.260   0.212   0.374   0.218   0.254   0.086   0.258
              0.021   0.014   0.001   0.016   0.021
  33  1.912   0.193   0.280   0.075   0.407   0.249   0.349   0.065   0.238
              0.015   0.004   0.001   0.015   0.020
  35  1.988   0.256   0.250   0.229   0.397   0.243   0.244   0.072   0.228
              0.019   0.015   0.001   0.014   0.022

mulliken: Qtot =       60.000

mulliken: Spin DOWN 

Species: H.mpn               
Atom  Qatom  Qorb
               1s      1s      1Ppy    1Ppz    1Ppx    
   1  0.618   0.416   0.151   0.023   0.017   0.011
   3  0.619   0.426   0.143   0.022   0.018   0.011
   9  0.618   0.421   0.146   0.017   0.017   0.018
  10  0.619   0.431   0.138   0.021   0.017   0.012
  27  0.619   0.431   0.138   0.021   0.017   0.012
  28  0.618   0.421   0.146   0.017   0.017   0.018
  34  0.619   0.426   0.143   0.022   0.018   0.011
  36  0.618   0.416   0.151   0.023   0.017   0.011

Species: C.mpn               
Atom  Qatom  Qorb
               2s      2s      2py     2pz     2px     2py     2pz     2px     
               2Pdxy   2Pdyz   2Pdz2   2Pdxz   2Pdx2-y2
   2  1.988   0.256   0.250   0.229   0.397   0.242   0.244   0.072   0.228
              0.019   0.015   0.001   0.014   0.022
   4  1.912   0.193   0.280   0.075   0.407   0.249   0.349   0.065   0.239
              0.015   0.004   0.001   0.015   0.020
   5  1.969   0.233   0.260   0.212   0.374   0.217   0.254   0.086   0.258
              0.021   0.014   0.001   0.016   0.021
   6  2.001   0.255   0.251   0.238   0.401   0.238   0.237   0.071   0.239
              0.022   0.014   0.001   0.014   0.020
   7  2.000   0.241   0.258   0.229   0.390   0.233   0.248   0.081   0.248
              0.021   0.015   0.001   0.015   0.021
   8  1.989   0.258   0.249   0.224   0.401   0.247   0.246   0.071   0.224
              0.020   0.014   0.001   0.013   0.021
  11  1.911   0.195   0.280   0.077   0.412   0.249   0.344   0.062   0.238
              0.015   0.004   0.001   0.015   0.019
  12  1.970   0.235   0.259   0.214   0.376   0.213   0.251   0.085   0.262
              0.021   0.014   0.001   0.016   0.021
  13  2.000   0.242   0.258   0.225   0.390   0.230   0.252   0.080   0.251
              0.021   0.014   0.001   0.015   0.021
  14  2.001   0.240   0.259   0.227   0.388   0.232   0.251   0.080   0.251
              0.021   0.015   0.001   0.015   0.021
  15  2.000   0.241   0.259   0.226   0.388   0.231   0.250   0.080   0.252
              0.020   0.015   0.001   0.015   0.022
  16  2.000   0.244   0.257   0.226   0.392   0.232   0.251   0.079   0.247
              0.021   0.014   0.001   0.014   0.021
  17  1.893   0.187   0.281   0.157   0.398   0.154   0.291   0.069   0.301
              0.022   0.010   0.001   0.010   0.013
  18  1.892   0.188   0.281   0.083   0.400   0.234   0.340   0.068   0.244
              0.016   0.004   0.001   0.015   0.019
  19  1.892   0.188   0.281   0.083   0.400   0.234   0.340   0.068   0.243
              0.016   0.004   0.001   0.015   0.019
  20  1.893   0.187   0.281   0.157   0.398   0.154   0.291   0.069   0.301
              0.022   0.010   0.001   0.010   0.013
  21  2.001   0.245   0.257   0.226   0.392   0.232   0.251   0.079   0.247
              0.021   0.014   0.001   0.014   0.021
  22  2.000   0.241   0.258   0.227   0.388   0.231   0.250   0.080   0.252
              0.020   0.015   0.001   0.015   0.022
  23  2.001   0.240   0.259   0.227   0.388   0.231   0.251   0.080   0.251
              0.021   0.015   0.001   0.015   0.021
  24  2.000   0.243   0.258   0.225   0.390   0.229   0.252   0.080   0.251
              0.021   0.014   0.001   0.015   0.021
  25  1.969   0.236   0.259   0.214   0.376   0.212   0.251   0.085   0.263
              0.021   0.014   0.001   0.016   0.021
  26  1.911   0.195   0.280   0.077   0.412   0.249   0.345   0.062   0.238
              0.015   0.004   0.001   0.015   0.019
  29  1.989   0.258   0.249   0.224   0.401   0.247   0.246   0.071   0.224
              0.020   0.014   0.001   0.013   0.021
  30  2.000   0.241   0.258   0.229   0.390   0.233   0.248   0.081   0.248
              0.021   0.015   0.001   0.015   0.021
  31  2.001   0.255   0.251   0.238   0.401   0.237   0.237   0.071   0.240
              0.022   0.014   0.001   0.014   0.020
  32  1.969   0.232   0.260   0.212   0.374   0.218   0.254   0.086   0.258
              0.021   0.014   0.001   0.016   0.021
  33  1.912   0.193   0.280   0.075   0.407   0.249   0.349   0.065   0.238
              0.015   0.004   0.001   0.015   0.020
  35  1.988   0.256   0.250   0.229   0.397   0.243   0.243   0.072   0.228
              0.019   0.015   0.001   0.014   0.022

mulliken: Qtot =       60.000

                     ====================================
                        Begin CG opt. move =      1
                     ====================================

superc: Internal auxiliary supercell:     3 x     1 x     1  =       3
superc: Number of atoms, orbitals, and projectors:    108   1212   1560

outcell: Unit cell vectors (Ang):
        8.970000    0.000000    0.000000
        0.000000   50.000000    0.000000
        0.000000    0.000000   20.000000

outcell: Cell vector modules (Ang)   :    8.970000   50.000000   20.000000
outcell: Cell angles (23,13,12) (deg):     90.0000     90.0000     90.0000
outcell: Cell volume (Ang**3)        :   8970.0000
<dSpData1D:S at geom step 1
  <sparsity:sparsity for geom step 1
    nrows_g=404 nrows=17 sparsity=.0494 nnzs=8065, refcount: 7>
  <dData1D:(new from dSpData1D) n=8065, refcount: 1>
refcount: 1>
new_DM -- step:     2
Re-using DM from previous geometries...
Number of DMs in history: 1
 DM extrapolation coefficients: 
1   1.00000
New DM after history re-use:
<dSpData2D:SpM extrapolated using coords
  <sparsity:sparsity for geom step 1
    nrows_g=404 nrows=17 sparsity=.0494 nnzs=8065, refcount: 8>
  <dData2D:(temp array for extrapolation) n=8065 m=2, refcount: 1>
refcount: 1>
No. of atoms with KB's overlaping orbs in proc 0. Max # of overlaps:      19     217
New grid distribution:   1
           1       1:   54    1:   80    1:   21
           2       1:   54    1:   80   22:   42
           3       1:   54    1:   80   43:   63
           4       1:   54    1:   80   64:   84
           5       1:   54    1:   80   85:  105
           6       1:   54    1:   80  106:  125
           7       1:   54   81:  160    1:   21
           8       1:   54   81:  160   22:   42
           9       1:   54   81:  160   43:   63
          10       1:   54   81:  160   64:   84
          11       1:   54   81:  160   85:  105
          12       1:   54   81:  160  106:  125
          13       1:   54  161:  240    1:   21
          14       1:   54  161:  240   22:   42
          15       1:   54  161:  240   43:   63
          16       1:   54  161:  240   64:   84
          17       1:   54  161:  240   85:  105
          18       1:   54  161:  240  106:  125
          19       1:   54  241:  320    1:   21
          20       1:   54  241:  320   22:   42
          21       1:   54  241:  320   43:   63
          22       1:   54  241:  320   64:   84
          23       1:   54  241:  320   85:  105
          24       1:   54  241:  320  106:  125

InitMesh: MESH =   108 x   640 x   250 =    17280000
InitMesh: (bp) =    54 x   320 x   125 =     2160000
InitMesh: Mesh cutoff (required, used) =   400.000   400.649 Ry
ExtMesh (bp) on 0 =   118 x   148 x    89 =     1554296
New grid distribution:   2
           1       1:   54    1:   38    1:   63
           2       1:   54   39:   48    1:   58
           3       1:   54   75:   79    1:   63
           4       1:   54   39:   48   59:   63
           5       1:   54   39:   48   68:  125
           6       1:   54   62:   66    1:   63
           7       1:   54   80:  320    1:   58
           8       1:   54   39:   48   64:   67
           9       1:   54   53:   61    1:   59
          10       1:   54   62:   66   64:  125
          11       1:   54   80:  320   68:  125
          12       1:   54   53:   61   60:   63
          13       1:   54    1:   38   64:  125
          14       1:   54   53:   61   68:  125
          15       1:   54   75:   79   64:  125
          16       1:   54   53:   61   64:   67
          17       1:   54   80:  320   64:   67
          18       1:   54   67:   74    1:   59
          19       1:   54   49:   52    1:   63
          20       1:   54   67:   74   64:   67
          21       1:   54   80:  320   59:   63
          22       1:   54   67:   74   68:  125
          23       1:   54   49:   52   64:  125
          24       1:   54   67:   74   60:   63
New grid distribution:   3
           1       1:   54    1:   26    1:   63
           2       1:   54   27:   41    1:   55
           3       1:   54   42:   48    1:   63
           4       1:   54   27:   41   64:   71
           5       1:   54    1:   26   64:  125
           6       1:   54   27:   41   72:  125
           7       1:   54   84:   90    1:   63
           8       1:   54   27:   41   56:   63
           9       1:   54   70:   83    1:   55
          10       1:   54   91:  320   64:   70
          11       1:   54   63:   69    1:   63
          12       1:   54   49:   62   56:   63
          13       1:   54   91:  320    1:   56
          14       1:   54   49:   62    1:   55
          15       1:   54   63:   69   64:  125
          16       1:   54   70:   83   56:   63
          17       1:   54   91:  320   71:  125
          18       1:   54   49:   62   72:  125
          19       1:   54   42:   48   64:  125
          20       1:   54   70:   83   64:   71
          21       1:   54   91:  320   57:   63
          22       1:   54   70:   83   72:  125
          23       1:   54   84:   90   64:  125
          24       1:   54   49:   62   64:   71
Setting up quadratic distribution...
ExtMesh (bp) on 0 =   118 x   106 x   131 =     1638548
PhiOnMesh: Number of (b)points on node 0 =               129276
PhiOnMesh: nlist on node 0 =               390893

        iscf     Eharris(eV)        E_KS(eV)     FreeEng(eV)     dDmax    Ef(eV) dHmax(eV)
   scf:    1    -4456.014490    -4456.508674    -4456.508965  0.012966 -3.284109  1.431556
   scf:    2    -4450.256846    -4454.742395    -4454.742733  0.023584 -3.354100  4.339058
   scf:    3    -4457.226393    -4456.759342    -4456.759639  0.017438 -3.303583  0.124838
   scf:    4    -4456.768229    -4456.765196    -4456.765493  0.000795 -3.308074  0.042839
   scf:    5    -4456.765734    -4456.765483    -4456.765781  0.000104 -3.308766  0.029633
   scf:    6    -4456.766071    -4456.765832    -4456.766132  0.000167 -3.309819  0.008350
   scf:    7    -4456.765870    -4456.765853    -4456.766153  0.000033 -3.310030  0.004194
   scf:    8    -4456.765865    -4456.765860    -4456.766160  0.000026 -3.310275  0.001942
   scf:    9    -4456.765863    -4456.765862    -4456.766162  0.000020 -3.310500  0.000520
   scf:   10    -4456.765862    -4456.765862    -4456.766162  0.000002 -3.310514  0.000380

SCF Convergence by DM+H criterion
max |DM_out - DM_in|         :     0.0000023439
max |H_out - H_in|      (eV) :     0.0003804522
SCF cycle converged after 10 iterations

Using DM_out to compute the final energy and forces
No. of atoms with KB's overlaping orbs in proc 0. Max # of overlaps:      19     217

siesta: E_KS(eV) =            -4456.7659

siesta: Total spin polarization (Qup-Qdown) =    0.000000

siesta: Atomic forces (eV/Ang):
----------------------------------------
   Tot   -0.013090    0.017375   -0.000000
----------------------------------------
   Max    0.797099
   Res    0.262456    sqrt( Sum f_i^2 / 3N )
----------------------------------------
   Max    0.797099    constrained

Stress-tensor-Voigt (kbar):       -0.87        1.03        0.00        0.01       -0.00        0.00
(Free)E + p*V (eV/cell)    -4457.0785
Target enthalpy (eV/cell)    -4456.7662
 
mulliken: Atomic and Orbital Populations:

mulliken: Spin UP 

Species: H.mpn               
Atom  Qatom  Qorb
               1s      1s      1Ppy    1Ppz    1Ppx    
   1  0.618   0.415   0.152   0.023   0.017   0.011
   3  0.619   0.426   0.143   0.022   0.017   0.011
   9  0.619   0.420   0.146   0.017   0.017   0.018
  10  0.619   0.430   0.138   0.021   0.017   0.012
  27  0.619   0.430   0.138   0.021   0.017   0.012
  28  0.619   0.421   0.146   0.017   0.017   0.018
  34  0.619   0.426   0.142   0.022   0.017   0.011
  36  0.618   0.415   0.152   0.023   0.017   0.011

Species: C.mpn               
Atom  Qatom  Qorb
               2s      2s      2py     2pz     2px     2py     2pz     2px     
               2Pdxy   2Pdyz   2Pdz2   2Pdxz   2Pdx2-y2
   2  1.987   0.248   0.254   0.229   0.393   0.232   0.240   0.075   0.244
              0.020   0.014   0.001   0.016   0.021
   4  1.912   0.197   0.278   0.080   0.412   0.250   0.344   0.061   0.235
              0.014   0.004   0.001   0.015   0.020
   5  1.970   0.233   0.260   0.213   0.375   0.218   0.254   0.085   0.257
              0.021   0.015   0.001   0.016   0.021
   6  2.002   0.251   0.254   0.235   0.397   0.235   0.241   0.074   0.244
              0.021   0.014   0.001   0.014   0.021
   7  2.001   0.247   0.255   0.234   0.395   0.236   0.244   0.076   0.242
              0.021   0.014   0.001   0.015   0.021
   8  1.988   0.249   0.253   0.223   0.396   0.235   0.244   0.075   0.241
              0.021   0.014   0.001   0.015   0.021
  11  1.911   0.195   0.280   0.078   0.411   0.249   0.343   0.062   0.238
              0.015   0.004   0.001   0.015   0.019
  12  1.969   0.235   0.259   0.214   0.375   0.213   0.252   0.085   0.262
              0.021   0.014   0.001   0.017   0.021
  13  2.000   0.242   0.258   0.225   0.391   0.231   0.252   0.080   0.250
              0.021   0.014   0.001   0.015   0.021
  14  2.000   0.240   0.259   0.227   0.388   0.232   0.250   0.081   0.251
              0.021   0.015   0.001   0.015   0.021
  15  2.001   0.246   0.256   0.232   0.392   0.231   0.245   0.076   0.249
              0.021   0.015   0.001   0.015   0.021
  16  2.001   0.245   0.256   0.227   0.393   0.233   0.250   0.079   0.246
              0.021   0.014   0.001   0.014   0.021
  17  1.893   0.191   0.280   0.161   0.401   0.156   0.286   0.065   0.299
              0.022   0.009   0.001   0.010   0.013
  18  1.892   0.188   0.281   0.083   0.402   0.235   0.341   0.067   0.242
              0.016   0.004   0.001   0.015   0.019
  19  1.892   0.188   0.281   0.083   0.402   0.235   0.341   0.067   0.242
              0.016   0.004   0.001   0.015   0.019
  20  1.893   0.191   0.280   0.161   0.401   0.156   0.286   0.065   0.299
              0.022   0.009   0.001   0.010   0.013
  21  2.001   0.245   0.256   0.227   0.393   0.232   0.250   0.079   0.247
              0.021   0.014   0.001   0.014   0.021
  22  2.001   0.246   0.256   0.232   0.392   0.231   0.245   0.076   0.249
              0.021   0.015   0.001   0.015   0.021
  23  2.000   0.240   0.259   0.227   0.387   0.231   0.250   0.081   0.251
              0.021   0.015   0.001   0.015   0.021
  24  2.000   0.242   0.258   0.225   0.390   0.230   0.252   0.080   0.250
              0.021   0.014   0.001   0.015   0.021
  25  1.969   0.235   0.259   0.214   0.375   0.213   0.252   0.085   0.263
              0.021   0.014   0.001   0.017   0.021
  26  1.911   0.195   0.280   0.078   0.411   0.249   0.344   0.062   0.238
              0.015   0.004   0.001   0.015   0.019
  29  1.988   0.249   0.253   0.224   0.396   0.235   0.244   0.075   0.241
              0.021   0.014   0.001   0.015   0.021
  30  2.001   0.248   0.255   0.234   0.395   0.236   0.244   0.075   0.242
              0.020   0.014   0.001   0.015   0.021
  31  2.002   0.251   0.254   0.235   0.397   0.234   0.241   0.074   0.244
              0.021   0.014   0.001   0.014   0.021
  32  1.970   0.233   0.260   0.213   0.375   0.219   0.254   0.085   0.256
              0.021   0.015   0.001   0.016   0.021
  33  1.912   0.197   0.279   0.080   0.412   0.251   0.344   0.061   0.234
              0.014   0.004   0.001   0.015   0.020
  35  1.987   0.248   0.254   0.229   0.393   0.232   0.240   0.075   0.244
              0.020   0.014   0.001   0.016   0.021

mulliken: Qtot =       60.000

mulliken: Spin DOWN 

Species: H.mpn               
Atom  Qatom  Qorb
               1s      1s      1Ppy    1Ppz    1Ppx    
   1  0.618   0.415   0.152   0.023   0.017   0.011
   3  0.619   0.426   0.143   0.022   0.017   0.011
   9  0.619   0.420   0.146   0.017   0.017   0.018
  10  0.619   0.430   0.138   0.021   0.017   0.012
  27  0.619   0.430   0.138   0.021   0.017   0.012
  28  0.619   0.421   0.146   0.017   0.017   0.018
  34  0.619   0.426   0.142   0.022   0.017   0.011
  36  0.618   0.415   0.152   0.023   0.017   0.011

Species: C.mpn               
Atom  Qatom  Qorb
               2s      2s      2py     2pz     2px     2py     2pz     2px     
               2Pdxy   2Pdyz   2Pdz2   2Pdxz   2Pdx2-y2
   2  1.987   0.248   0.254   0.229   0.393   0.232   0.240   0.075   0.244
              0.020   0.014   0.001   0.016   0.021
   4  1.912   0.197   0.278   0.080   0.412   0.250   0.344   0.061   0.235
              0.014   0.004   0.001   0.015   0.020
   5  1.970   0.233   0.260   0.213   0.375   0.218   0.254   0.085   0.257
              0.021   0.015   0.001   0.016   0.021
   6  2.002   0.251   0.254   0.235   0.397   0.235   0.241   0.074   0.244
              0.021   0.014   0.001   0.014   0.021
   7  2.001   0.247   0.255   0.234   0.395   0.236   0.244   0.076   0.242
              0.021   0.014   0.001   0.015   0.021
   8  1.988   0.249   0.253   0.223   0.396   0.235   0.244   0.075   0.241
              0.021   0.014   0.001   0.015   0.021
  11  1.911   0.195   0.280   0.078   0.411   0.249   0.343   0.062   0.238
              0.015   0.004   0.001   0.015   0.019
  12  1.969   0.235   0.259   0.214   0.375   0.213   0.252   0.085   0.262
              0.021   0.014   0.001   0.017   0.021
  13  2.000   0.242   0.258   0.225   0.391   0.231   0.252   0.080   0.250
              0.021   0.014   0.001   0.015   0.021
  14  2.000   0.240   0.259   0.227   0.388   0.232   0.250   0.081   0.251
              0.021   0.015   0.001   0.015   0.021
  15  2.001   0.246   0.256   0.232   0.392   0.231   0.245   0.076   0.249
              0.021   0.015   0.001   0.015   0.021
  16  2.001   0.245   0.256   0.227   0.393   0.233   0.250   0.079   0.246
              0.021   0.014   0.001   0.014   0.021
  17  1.893   0.191   0.280   0.161   0.401   0.156   0.286   0.065   0.299
              0.022   0.009   0.001   0.010   0.013
  18  1.892   0.188   0.281   0.083   0.402   0.235   0.341   0.067   0.242
              0.016   0.004   0.001   0.015   0.019
  19  1.892   0.188   0.281   0.083   0.402   0.235   0.341   0.067   0.242
              0.016   0.004   0.001   0.015   0.019
  20  1.893   0.191   0.280   0.161   0.401   0.156   0.286   0.065   0.299
              0.022   0.009   0.001   0.010   0.013
  21  2.001   0.245   0.256   0.227   0.393   0.232   0.250   0.079   0.247
              0.021   0.014   0.001   0.014   0.021
  22  2.001   0.246   0.256   0.232   0.392   0.231   0.245   0.076   0.249
              0.021   0.015   0.001   0.015   0.021
  23  2.000   0.240   0.259   0.227   0.387   0.231   0.250   0.081   0.251
              0.021   0.015   0.001   0.015   0.021
  24  2.000   0.242   0.258   0.225   0.390   0.230   0.252   0.080   0.250
              0.021   0.014   0.001   0.015   0.021
  25  1.969   0.235   0.259   0.214   0.375   0.213   0.252   0.085   0.263
              0.021   0.014   0.001   0.017   0.021
  26  1.911   0.195   0.280   0.078   0.411   0.249   0.344   0.062   0.238
              0.015   0.004   0.001   0.015   0.019
  29  1.988   0.249   0.253   0.224   0.396   0.235   0.244   0.075   0.241
              0.021   0.014   0.001   0.015   0.021
  30  2.001   0.248   0.255   0.234   0.395   0.236   0.244   0.075   0.242
              0.020   0.014   0.001   0.015   0.021
  31  2.002   0.251   0.254   0.235   0.397   0.234   0.241   0.074   0.244
              0.021   0.014   0.001   0.014   0.021
  32  1.970   0.233   0.260   0.213   0.375   0.219   0.254   0.085   0.256
              0.021   0.015   0.001   0.016   0.021
  33  1.912   0.197   0.279   0.080   0.413   0.251   0.344   0.061   0.234
              0.014   0.004   0.001   0.015   0.020
  35  1.987   0.248   0.254   0.229   0.393   0.232   0.240   0.075   0.244
              0.020   0.014   0.001   0.016   0.021

mulliken: Qtot =       60.000

                     ====================================
                        Begin CG opt. move =      2
                     ====================================

superc: Internal auxiliary supercell:     3 x     1 x     1  =       3
superc: Number of atoms, orbitals, and projectors:    108   1212   1560

outcell: Unit cell vectors (Ang):
        8.970000    0.000000    0.000000
        0.000000   50.000000    0.000000
        0.000000    0.000000   20.000000

outcell: Cell vector modules (Ang)   :    8.970000   50.000000   20.000000
outcell: Cell angles (23,13,12) (deg):     90.0000     90.0000     90.0000
outcell: Cell volume (Ang**3)        :   8970.0000
<dSpData1D:S at geom step 2
  <sparsity:sparsity for geom step 2
    nrows_g=404 nrows=17 sparsity=.0494 nnzs=8065, refcount: 7>
  <dData1D:(new from dSpData1D) n=8065, refcount: 1>
refcount: 1>
new_DM -- step:     3
Re-using DM from previous geometries...
Number of DMs in history: 1
 DM extrapolation coefficients: 
1   1.00000
New DM after history re-use:
<dSpData2D:SpM extrapolated using coords
  <sparsity:sparsity for geom step 2
    nrows_g=404 nrows=17 sparsity=.0494 nnzs=8065, refcount: 8>
  <dData2D:(temp array for extrapolation) n=8065 m=2, refcount: 1>
refcount: 1>
No. of atoms with KB's overlaping orbs in proc 0. Max # of overlaps:      19     217
New grid distribution:   1
           1       1:   54    1:   80    1:   21
           2       1:   54    1:   80   22:   42
           3       1:   54    1:   80   43:   63
           4       1:   54    1:   80   64:   84
           5       1:   54    1:   80   85:  105
           6       1:   54    1:   80  106:  125
           7       1:   54   81:  160    1:   21
           8       1:   54   81:  160   22:   42
           9       1:   54   81:  160   43:   63
          10       1:   54   81:  160   64:   84
          11       1:   54   81:  160   85:  105
          12       1:   54   81:  160  106:  125
          13       1:   54  161:  240    1:   21
          14       1:   54  161:  240   22:   42
          15       1:   54  161:  240   43:   63
          16       1:   54  161:  240   64:   84
          17       1:   54  161:  240   85:  105
          18       1:   54  161:  240  106:  125
          19       1:   54  241:  320    1:   21
          20       1:   54  241:  320   22:   42
          21       1:   54  241:  320   43:   63
          22       1:   54  241:  320   64:   84
          23       1:   54  241:  320   85:  105
          24       1:   54  241:  320  106:  125

InitMesh: MESH =   108 x   640 x   250 =    17280000
InitMesh: (bp) =    54 x   320 x   125 =     2160000
InitMesh: Mesh cutoff (required, used) =   400.000   400.649 Ry
ExtMesh (bp) on 0 =   118 x   148 x    89 =     1554296
New grid distribution:   2
           1       1:   54    1:   38    1:   63
           2       1:   54   39:   48    1:   58
           3       1:   54   75:   79    1:   63
           4       1:   54   39:   48   59:   63
           5       1:   54   39:   48   68:  125
           6       1:   54   62:   66    1:   63
           7       1:   54   80:  320    1:   58
           8       1:   54   39:   48   64:   67
           9       1:   54   53:   61    1:   59
          10       1:   54   62:   66   64:  125
          11       1:   54   80:  320   68:  125
          12       1:   54   53:   61   60:   63
          13       1:   54    1:   38   64:  125
          14       1:   54   53:   61   68:  125
          15       1:   54   75:   79   64:  125
          16       1:   54   53:   61   64:   67
          17       1:   54   80:  320   64:   67
          18       1:   54   67:   74    1:   59
          19       1:   54   49:   52    1:   63
          20       1:   54   67:   74   64:   67
          21       1:   54   80:  320   59:   63
          22       1:   54   67:   74   68:  125
          23       1:   54   49:   52   64:  125
          24       1:   54   67:   74   60:   63
New grid distribution:   3
           1       1:   54    1:   26    1:   63
           2       1:   54   27:   41    1:   55
           3       1:   54   42:   48    1:   63
           4       1:   54   27:   41   64:   71
           5       1:   54    1:   26   64:  125
           6       1:   54   27:   41   72:  125
           7       1:   54   84:   90    1:   63
           8       1:   54   27:   41   56:   63
           9       1:   54   70:   83    1:   55
          10       1:   54   91:  320   64:   70
          11       1:   54   63:   69    1:   63
          12       1:   54   49:   62   56:   63
          13       1:   54   91:  320    1:   56
          14       1:   54   49:   62    1:   55
          15       1:   54   63:   69   64:  125
          16       1:   54   70:   83   56:   63
          17       1:   54   91:  320   71:  125
          18       1:   54   49:   62   72:  125
          19       1:   54   42:   48   64:  125
          20       1:   54   70:   83   64:   71
          21       1:   54   91:  320   57:   63
          22       1:   54   70:   83   72:  125
          23       1:   54   84:   90   64:  125
          24       1:   54   49:   62   64:   71
Setting up quadratic distribution...
ExtMesh (bp) on 0 =   118 x   106 x   131 =     1638548
PhiOnMesh: Number of (b)points on node 0 =               129276
PhiOnMesh: nlist on node 0 =               390922

        iscf     Eharris(eV)        E_KS(eV)     FreeEng(eV)     dDmax    Ef(eV) dHmax(eV)
   scf:    1    -4456.753274    -4456.765138    -4456.765402  0.002417 -3.311644  0.266128
   scf:    2    -4456.543520    -4456.702000    -4456.702260  0.004652 -3.298053  0.856045
   scf:    3    -4456.789763    -4456.773402    -4456.773665  0.003539 -3.308137  0.021825
   scf:    4    -4456.773654    -4456.773572    -4456.773834  0.000140 -3.307357  0.006549
   scf:    5    -4456.773588    -4456.773581    -4456.773843  0.000017 -3.307262  0.004426
   scf:    6    -4456.773594    -4456.773588    -4456.773850  0.000021 -3.307140  0.001435
   scf:    7    -4456.773590    -4456.773589    -4456.773851  0.000010 -3.307076  0.000410

SCF Convergence by DM+H criterion
max |DM_out - DM_in|         :     0.0000098398
max |H_out - H_in|      (eV) :     0.0004095442
SCF cycle converged after 7 iterations

Using DM_out to compute the final energy and forces
No. of atoms with KB's overlaping orbs in proc 0. Max # of overlaps:      19     217

siesta: E_KS(eV) =            -4456.7736

siesta: Total spin polarization (Qup-Qdown) =    0.000000

siesta: Atomic forces (eV/Ang):
----------------------------------------
   Tot   -0.018844    0.022903   -0.000000
----------------------------------------
   Max    0.573344
   Res    0.200811    sqrt( Sum f_i^2 / 3N )
----------------------------------------
   Max    0.573344    constrained

Stress-tensor-Voigt (kbar):       -0.87        1.00        0.00        0.00       -0.00       -0.00
(Free)E + p*V (eV/cell)    -4457.0197
Target enthalpy (eV/cell)    -4456.7739
 
mulliken: Atomic and Orbital Populations:

mulliken: Spin UP 

Species: H.mpn               
Atom  Qatom  Qorb
               1s      1s      1Ppy    1Ppz    1Ppx    
   1  0.618   0.415   0.151   0.023   0.017   0.011
   3  0.619   0.426   0.143   0.022   0.017   0.011
   9  0.619   0.421   0.146   0.017   0.017   0.018
  10  0.619   0.430   0.138   0.021   0.017   0.012
  27  0.619   0.430   0.138   0.021   0.017   0.012
  28  0.619   0.421   0.146   0.017   0.017   0.018
  34  0.619   0.426   0.143   0.022   0.017   0.011
  36  0.618   0.415   0.152   0.023   0.017   0.011

Species: C.mpn               
Atom  Qatom  Qorb
               2s      2s      2py     2pz     2px     2py     2pz     2px     
               2Pdxy   2Pdyz   2Pdz2   2Pdxz   2Pdx2-y2
   2  1.987   0.249   0.253   0.229   0.394   0.233   0.241   0.074   0.242
              0.020   0.014   0.001   0.015   0.021
   4  1.912   0.197   0.279   0.079   0.412   0.250   0.345   0.061   0.235
              0.014   0.004   0.001   0.015   0.020
   5  1.970   0.233   0.260   0.213   0.375   0.218   0.254   0.086   0.257
              0.021   0.015   0.001   0.016   0.021
   6  2.001   0.252   0.253   0.235   0.398   0.235   0.240   0.073   0.243
              0.021   0.014   0.001   0.014   0.021
   7  2.001   0.246   0.256   0.233   0.394   0.236   0.245   0.076   0.243
              0.021   0.014   0.001   0.015   0.021
   8  1.988   0.250   0.253   0.224   0.397   0.237   0.244   0.074   0.239
              0.021   0.014   0.001   0.015   0.021
  11  1.911   0.195   0.280   0.078   0.412   0.249   0.344   0.062   0.238
              0.015   0.004   0.001   0.015   0.019
  12  1.969   0.235   0.259   0.214   0.375   0.213   0.252   0.085   0.262
              0.021   0.014   0.001   0.017   0.021
  13  2.000   0.242   0.258   0.225   0.390   0.231   0.252   0.080   0.250
              0.021   0.014   0.001   0.015   0.021
  14  2.000   0.240   0.259   0.227   0.388   0.232   0.250   0.081   0.251
              0.021   0.015   0.001   0.015   0.021
  15  2.001   0.245   0.257   0.231   0.391   0.231   0.246   0.077   0.249
              0.021   0.015   0.001   0.015   0.021
  16  2.001   0.245   0.256   0.227   0.393   0.233   0.250   0.079   0.246
              0.021   0.014   0.001   0.014   0.021
  17  1.893   0.191   0.280   0.160   0.401   0.156   0.287   0.066   0.299
              0.022   0.009   0.001   0.010   0.013
  18  1.892   0.188   0.281   0.083   0.402   0.235   0.340   0.067   0.242
              0.016   0.004   0.001   0.015   0.019
  19  1.892   0.188   0.281   0.083   0.402   0.235   0.340   0.067   0.242
              0.016   0.004   0.001   0.015   0.019
  20  1.893   0.191   0.280   0.160   0.401   0.156   0.287   0.066   0.299
              0.022   0.009   0.001   0.010   0.013
  21  2.001   0.245   0.256   0.227   0.393   0.232   0.251   0.079   0.247
              0.021   0.014   0.001   0.014   0.021
  22  2.000   0.245   0.257   0.231   0.391   0.231   0.246   0.077   0.249
              0.020   0.015   0.001   0.015   0.021
  23  2.000   0.240   0.259   0.227   0.388   0.231   0.250   0.081   0.251
              0.021   0.015   0.001   0.015   0.021
  24  2.000   0.242   0.258   0.225   0.390   0.230   0.252   0.080   0.251
              0.021   0.014   0.001   0.015   0.021
  25  1.969   0.235   0.259   0.214   0.375   0.213   0.252   0.085   0.263
              0.021   0.014   0.001   0.017   0.021
  26  1.911   0.195   0.280   0.078   0.412   0.249   0.344   0.062   0.238
              0.015   0.004   0.001   0.015   0.019
  29  1.988   0.251   0.252   0.224   0.397   0.237   0.244   0.074   0.239
              0.021   0.014   0.001   0.015   0.021
  30  2.001   0.246   0.256   0.233   0.394   0.235   0.245   0.076   0.243
              0.020   0.014   0.001   0.015   0.021
  31  2.002   0.252   0.253   0.235   0.398   0.235   0.240   0.073   0.244
              0.021   0.014   0.001   0.014   0.021
  32  1.970   0.233   0.260   0.213   0.375   0.219   0.254   0.086   0.257
              0.021   0.015   0.001   0.016   0.021
  33  1.912   0.197   0.279   0.079   0.412   0.250   0.345   0.061   0.235
              0.014   0.004   0.001   0.015   0.020
  35  1.987   0.249   0.253   0.229   0.394   0.233   0.241   0.074   0.242
              0.020   0.014   0.001   0.015   0.021

mulliken: Qtot =       60.000

mulliken: Spin DOWN 

Species: H.mpn               
Atom  Qatom  Qorb
               1s      1s      1Ppy    1Ppz    1Ppx    
   1  0.618   0.415   0.151   0.023   0.017   0.011
   3  0.619   0.426   0.143   0.022   0.017   0.011
   9  0.619   0.421   0.146   0.017   0.017   0.018
  10  0.619   0.430   0.138   0.021   0.017   0.012
  27  0.619   0.430   0.138   0.021   0.017   0.012
  28  0.619   0.421   0.146   0.017   0.017   0.018
  34  0.619   0.426   0.143   0.022   0.017   0.011
  36  0.618   0.415   0.152   0.023   0.017   0.011

Species: C.mpn               
Atom  Qatom  Qorb
               2s      2s      2py     2pz     2px     2py     2pz     2px     
               2Pdxy   2Pdyz   2Pdz2   2Pdxz   2Pdx2-y2
   2  1.987   0.249   0.253   0.229   0.394   0.233   0.241   0.074   0.242
              0.020   0.014   0.001   0.015   0.021
   4  1.912   0.197   0.279   0.079   0.412   0.250   0.345   0.061   0.235
              0.014   0.004   0.001   0.015   0.020
   5  1.970   0.233   0.260   0.213   0.375   0.218   0.254   0.086   0.257
              0.021   0.015   0.001   0.016   0.021
   6  2.001   0.252   0.253   0.235   0.398   0.235   0.240   0.073   0.243
              0.021   0.014   0.001   0.014   0.021
   7  2.001   0.246   0.256   0.233   0.394   0.236   0.245   0.076   0.243
              0.021   0.014   0.001   0.015   0.021
   8  1.988   0.250   0.253   0.224   0.397   0.237   0.244   0.074   0.239
              0.021   0.014   0.001   0.015   0.021
  11  1.911   0.195   0.280   0.078   0.412   0.249   0.344   0.062   0.238
              0.015   0.004   0.001   0.015   0.019
  12  1.969   0.235   0.259   0.214   0.375   0.213   0.252   0.085   0.262
              0.021   0.014   0.001   0.017   0.021
  13  2.000   0.242   0.258   0.225   0.390   0.231   0.252   0.080   0.250
              0.021   0.014   0.001   0.015   0.021
  14  2.000   0.240   0.259   0.227   0.388   0.232   0.250   0.081   0.251
              0.021   0.015   0.001   0.015   0.021
  15  2.001   0.245   0.257   0.231   0.391   0.231   0.246   0.077   0.249
              0.021   0.015   0.001   0.015   0.021
  16  2.001   0.245   0.256   0.227   0.393   0.233   0.250   0.079   0.246
              0.021   0.014   0.001   0.014   0.021
  17  1.893   0.191   0.280   0.160   0.401   0.156   0.287   0.066   0.299
              0.022   0.009   0.001   0.010   0.013
  18  1.892   0.188   0.281   0.083   0.402   0.235   0.340   0.067   0.242
              0.016   0.004   0.001   0.015   0.019
  19  1.892   0.188   0.281   0.083   0.402   0.235   0.340   0.067   0.242
              0.016   0.004   0.001   0.015   0.019
  20  1.893   0.191   0.280   0.160   0.401   0.156   0.287   0.066   0.299
              0.022   0.009   0.001   0.010   0.013
  21  2.001   0.245   0.256   0.227   0.393   0.232   0.251   0.079   0.247
              0.021   0.014   0.001   0.014   0.021
  22  2.000   0.245   0.257   0.231   0.391   0.231   0.246   0.077   0.249
              0.020   0.015   0.001   0.015   0.021
  23  2.000   0.240   0.259   0.227   0.388   0.231   0.250   0.081   0.251
              0.021   0.015   0.001   0.015   0.021
  24  2.000   0.242   0.258   0.225   0.390   0.230   0.252   0.080   0.251
              0.021   0.014   0.001   0.015   0.021
  25  1.969   0.235   0.259   0.214   0.375   0.213   0.252   0.085   0.263
              0.021   0.014   0.001   0.017   0.021
  26  1.911   0.195   0.280   0.078   0.412   0.249   0.344   0.062   0.238
              0.015   0.004   0.001   0.015   0.019
  29  1.988   0.251   0.252   0.224   0.397   0.237   0.244   0.074   0.239
              0.021   0.014   0.001   0.015   0.021
  30  2.001   0.247   0.256   0.233   0.394   0.235   0.245   0.076   0.243
              0.020   0.014   0.001   0.015   0.021
  31  2.002   0.252   0.253   0.235   0.398   0.235   0.240   0.073   0.244
              0.021   0.014   0.001   0.014   0.021
  32  1.970   0.233   0.260   0.213   0.375   0.219   0.254   0.086   0.257
              0.021   0.015   0.001   0.016   0.021
  33  1.912   0.197   0.279   0.079   0.412   0.250   0.345   0.061   0.235
              0.014   0.004   0.001   0.015   0.020
  35  1.987   0.249   0.253   0.229   0.394   0.233   0.241   0.074   0.242
              0.020   0.014   0.001   0.015   0.021

mulliken: Qtot =       60.000

cgvc: Finished line minimization    1.  Mean atomic displacement =    0.0279

                     ====================================
                        Begin CG opt. move =      3
                     ====================================

superc: Internal auxiliary supercell:     3 x     1 x     1  =       3
superc: Number of atoms, orbitals, and projectors:    108   1212   1560

outcell: Unit cell vectors (Ang):
        8.970000    0.000000    0.000000
        0.000000   50.000000    0.000000
        0.000000    0.000000   20.000000

outcell: Cell vector modules (Ang)   :    8.970000   50.000000   20.000000
outcell: Cell angles (23,13,12) (deg):     90.0000     90.0000     90.0000
outcell: Cell volume (Ang**3)        :   8970.0000
<dSpData1D:S at geom step 3
  <sparsity:sparsity for geom step 3
    nrows_g=404 nrows=17 sparsity=.0494 nnzs=8065, refcount: 7>
  <dData1D:(new from dSpData1D) n=8065, refcount: 1>
refcount: 1>
new_DM -- step:     4
Re-using DM from previous geometries...
Number of DMs in history: 1
 DM extrapolation coefficients: 
1   1.00000
New DM after history re-use:
<dSpData2D:SpM extrapolated using coords
  <sparsity:sparsity for geom step 3
    nrows_g=404 nrows=17 sparsity=.0494 nnzs=8065, refcount: 8>
  <dData2D:(temp array for extrapolation) n=8065 m=2, refcount: 1>
refcount: 1>
No. of atoms with KB's overlaping orbs in proc 0. Max # of overlaps:      19     217
New grid distribution:   1
           1       1:   54    1:   80    1:   21
           2       1:   54    1:   80   22:   42
           3       1:   54    1:   80   43:   63
           4       1:   54    1:   80   64:   84
           5       1:   54    1:   80   85:  105
           6       1:   54    1:   80  106:  125
           7       1:   54   81:  160    1:   21
           8       1:   54   81:  160   22:   42
           9       1:   54   81:  160   43:   63
          10       1:   54   81:  160   64:   84
          11       1:   54   81:  160   85:  105
          12       1:   54   81:  160  106:  125
          13       1:   54  161:  240    1:   21
          14       1:   54  161:  240   22:   42
          15       1:   54  161:  240   43:   63
          16       1:   54  161:  240   64:   84
          17       1:   54  161:  240   85:  105
          18       1:   54  161:  240  106:  125
          19       1:   54  241:  320    1:   21
          20       1:   54  241:  320   22:   42
          21       1:   54  241:  320   43:   63
          22       1:   54  241:  320   64:   84
          23       1:   54  241:  320   85:  105
          24       1:   54  241:  320  106:  125

InitMesh: MESH =   108 x   640 x   250 =    17280000
InitMesh: (bp) =    54 x   320 x   125 =     2160000
InitMesh: Mesh cutoff (required, used) =   400.000   400.649 Ry
ExtMesh (bp) on 0 =   118 x   148 x    89 =     1554296
New grid distribution:   2
           1       1:   54    1:   38    1:   63
           2       1:   54   39:   48    1:   58
           3       1:   54   75:   79    1:   63
           4       1:   54   39:   48   59:   63
           5       1:   54   39:   48   68:  125
           6       1:   54   62:   66    1:   63
           7       1:   54   80:  320    1:   58
           8       1:   54   39:   48   64:   67
           9       1:   54   53:   61    1:   59
          10       1:   54   62:   66   64:  125
          11       1:   54   80:  320   68:  125
          12       1:   54   53:   61   60:   63
          13       1:   54    1:   38   64:  125
          14       1:   54   53:   61   68:  125
          15       1:   54   75:   79   64:  125
          16       1:   54   53:   61   64:   67
          17       1:   54   80:  320   64:   67
          18       1:   54   67:   74    1:   59
          19       1:   54   49:   52    1:   63
          20       1:   54   67:   74   64:   67
          21       1:   54   80:  320   59:   63
          22       1:   54   67:   74   68:  125
          23       1:   54   49:   52   64:  125
          24       1:   54   67:   74   60:   63
New grid distribution:   3
           1       1:   54    1:   26    1:   63
           2       1:   54   27:   41    1:   55
           3       1:   54   42:   48    1:   63
           4       1:   54   27:   41   64:   71
           5       1:   54    1:   26   64:  125
           6       1:   54   27:   41   72:  125
           7       1:   54   84:   90    1:   63
           8       1:   54   27:   41   56:   63
           9       1:   54   70:   83    1:   55
          10       1:   54   91:  320   64:   70
          11       1:   54   63:   69    1:   63
          12       1:   54   49:   62   56:   63
          13       1:   54   91:  320    1:   56
          14       1:   54   49:   62    1:   55
          15       1:   54   63:   69   64:  125
          16       1:   54   70:   83   56:   63
          17       1:   54   91:  320   71:  125
          18       1:   54   49:   62   72:  125
          19       1:   54   42:   48   64:  125
          20       1:   54   70:   83   64:   71
          21       1:   54   91:  320   57:   63
          22       1:   54   70:   83   72:  125
          23       1:   54   84:   90   64:  125
          24       1:   54   49:   62   64:   71
Setting up quadratic distribution...
ExtMesh (bp) on 0 =   118 x   106 x   131 =     1638548
PhiOnMesh: Number of (b)points on node 0 =               129276
PhiOnMesh: nlist on node 0 =               389979

        iscf     Eharris(eV)        E_KS(eV)     FreeEng(eV)     dDmax    Ef(eV) dHmax(eV)
   scf:    1    -4454.844680    -4456.230852    -4456.231102  0.017246 -3.271617  2.310735
   scf:    2    -4435.502067    -4450.181734    -4450.183005  0.039890 -3.378510  7.524443
   scf:    3    -4458.342775    -4456.829277    -4456.829488  0.030693 -3.307025  0.084638
   scf:    4    -4456.831077    -4456.830382    -4456.830592  0.000380 -3.313564  0.041510
   scf:    5    -4456.830816    -4456.830636    -4456.830845  0.000208 -3.316986  0.024206
   scf:    6    -4456.830781    -4456.830730    -4456.830939  0.000162 -3.320543  0.011242
   scf:    7    -4456.830758    -4456.830749    -4456.830958  0.000074 -3.321499  0.005839
[...]
         10.75  10.87  11.10  11.23  11.32  11.43  11.51  11.63  11.78  11.84
         12.07  12.27  12.31  12.32  12.35  12.50  12.59  12.79  12.83  12.92
         13.09  13.40  13.42  13.44  13.45  13.50  13.55  13.58  13.62  13.78
         14.06  14.28  14.37  14.42  14.57  14.79  14.81  14.93  14.96  15.18
         15.31  15.49  16.29  16.37  16.54  16.65  17.60  17.94  17.98  18.01
         18.13  18.54  18.82  19.03  19.09  19.12  19.26  19.29  19.52  19.60
         19.93  20.05  20.18  20.19  20.27  20.45  20.54  20.65  20.91  21.00
         21.17  21.29  21.42  21.56  21.57  21.95  22.00  22.04  22.22  22.23
         22.51  22.55  22.60  22.75  22.75  22.89  23.02  23.18  23.56  23.60
         23.80  23.87  24.22  24.29  24.41  24.60  25.16  25.39  25.46  25.53
         25.83  25.98  26.51  26.59  27.12  27.74  28.13  28.85  29.06  29.33
         30.84  31.24  31.53  31.72  32.07  32.52  32.93  33.15  33.15  33.19
         33.74  33.93  34.17  34.27  34.55  34.87  35.50  35.60  35.87  36.26
         36.53  36.66  36.73  36.84  37.92  38.13  38.19  38.28  38.88  39.52
         39.95  40.07  40.45  40.67  41.72  41.79  42.50  43.27  43.53  44.35
         44.35  44.65  44.66  44.79  45.39  46.10  46.12  47.06  47.07  47.33
         47.51  47.73  48.79  48.92  49.39  49.45  49.87  49.99  50.32  50.52
         50.75  50.76  51.41  51.56  52.04  52.86  52.95  53.11  53.60  53.65
         54.48  54.96  55.06  55.29  55.51  55.98  56.07  56.32  56.67  56.87
         56.91  57.23  57.24  57.62  58.19  58.24  58.84  59.58  60.02  60.27
         60.74  60.84  61.18  61.19  61.51  61.64  61.82  62.01  62.55  63.24
         63.40  63.97  64.21  64.69  64.82  64.83  66.31  66.50  68.29  68.64
         69.97  71.54  72.68  72.73  73.65  73.83  74.34  74.61  74.94  75.41
         75.50  75.55  75.75  76.17  77.34  77.54  77.95  78.59  79.54  79.64
         80.62  81.09  81.53  81.55  81.80  83.25  83.38  83.63  84.42  84.86
         85.22  86.46  87.22  87.99  90.21  92.11  93.53  94.61  96.09  96.70
         97.06  97.92 101.97 103.10 103.78 106.03 107.17 107.96 110.12 110.49
        112.29 112.54 118.41 119.09 120.07 120.73 127.51 129.65 131.24 133.74
        136.59 138.92 139.67 142.91 144.46 146.20 149.71 157.42 163.18 164.00
        169.47 172.79 173.75 174.39
  50  1 -21.80 -21.68 -21.01 -20.73 -19.75 -19.39 -19.19 -19.03 -18.39 -18.32
        -18.15 -17.60 -17.05 -16.91 -15.48 -15.30 -14.90 -14.63 -14.16 -14.01
        -13.42 -13.20 -12.96 -12.87 -12.65 -12.54 -11.69 -11.18 -10.93 -10.67
        -10.45 -10.37 -10.07  -9.86  -9.75  -9.68  -9.62  -9.36  -9.33  -9.27
         -8.97  -8.83  -8.68  -8.57  -8.52  -8.28  -7.83  -7.64  -7.60  -7.24
         -7.17  -7.16  -6.90  -6.79  -6.21  -6.06  -5.95  -5.44  -4.73  -4.48
         -2.04  -1.79  -1.20  -0.70  -0.41  -0.33   0.55   0.68   1.16   1.53
          2.49   2.56   3.01   3.12   3.63   3.97   3.99   4.36   4.50   4.53
          4.93   5.03   5.53   5.71   5.73   5.90   5.91   6.11   6.20   6.40
          6.83   6.87   7.36   7.58   7.97   8.14   8.30   8.75   9.30   9.30
          9.50   9.55   9.66   9.73   9.76  10.14  10.17  10.33  10.39  10.53
         10.75  10.87  11.10  11.24  11.32  11.43  11.49  11.65  11.78  11.83
         12.06  12.29  12.31  12.32  12.33  12.50  12.58  12.79  12.83  12.93
         13.09  13.41  13.42  13.44  13.45  13.49  13.56  13.58  13.62  13.78
         14.06  14.28  14.38  14.42  14.56  14.79  14.82  14.92  14.96  15.18
         15.33  15.47  16.31  16.37  16.54  16.63  17.60  17.94  17.98  18.01
         18.12  18.54  18.82  19.03  19.09  19.12  19.26  19.29  19.52  19.60
         19.92  20.05  20.18  20.21  20.25  20.47  20.52  20.65  20.91  21.00
         21.17  21.29  21.42  21.56  21.57  21.95  22.00  22.05  22.22  22.22
         22.53  22.57  22.58  22.73  22.74  22.89  23.02  23.18  23.56  23.60
         23.80  23.87  24.22  24.29  24.41  24.60  25.21  25.35  25.46  25.53
         25.83  25.98  26.52  26.58  27.12  27.74  28.14  28.84  29.06  29.33
         30.84  31.24  31.51  31.72  32.07  32.52  32.97  33.13  33.14  33.19
         33.74  33.92  34.17  34.29  34.51  34.86  35.51  35.60  35.87  36.26
         36.54  36.66  36.73  36.83  37.92  38.14  38.18  38.27  38.88  39.51
         39.95  40.08  40.44  40.67  41.73  41.79  42.50  43.27  43.53  44.36
         44.36  44.64  44.66  44.79  45.39  46.10  46.11  47.07  47.07  47.32
         47.51  47.73  48.79  48.92  49.38  49.44  49.87  49.99  50.33  50.55
         50.72  50.74  51.40  51.56  52.04  52.87  52.95  53.11  53.60  53.65
         54.54  54.93  55.03  55.38  55.51  56.01  56.02  56.32  56.67  56.87
         56.90  57.18  57.27  57.58  58.18  58.23  58.84  59.60  60.03  60.26
         60.74  60.82  61.19  61.21  61.57  61.63  61.76  62.00  62.55  63.25
         63.41  63.98  64.21  64.68  64.81  64.82  66.30  66.50  68.29  68.64
         69.98  71.54  72.66  72.72  73.70  73.85  74.35  74.64  74.89  75.41
         75.50  75.55  75.72  76.18  77.38  77.54  77.92  78.59  79.55  79.64
         80.64  81.12  81.52  81.57  81.77  83.26  83.40  83.62  84.43  84.84
         85.21  86.44  87.28  87.93  90.24  92.13  93.53  94.57  96.11  96.66
         97.05  97.88 101.97 103.14 103.75 106.03 107.19 107.95 110.10 110.55
        112.24 112.54 118.54 118.98 120.06 120.70 127.53 129.69 131.19 133.74
        136.65 138.92 139.56 143.49 144.39 145.76 149.72 157.42 163.27 163.91
        169.46 172.88 173.69 174.32
  50  2 -21.80 -21.68 -21.01 -20.73 -19.75 -19.39 -19.19 -19.03 -18.39 -18.32
        -18.15 -17.60 -17.05 -16.91 -15.48 -15.30 -14.90 -14.63 -14.16 -14.01
        -13.42 -13.20 -12.96 -12.87 -12.65 -12.54 -11.69 -11.18 -10.93 -10.67
        -10.45 -10.37 -10.07  -9.86  -9.75  -9.68  -9.62  -9.36  -9.33  -9.27
         -8.97  -8.83  -8.68  -8.57  -8.52  -8.28  -7.83  -7.64  -7.60  -7.24
         -7.17  -7.16  -6.90  -6.79  -6.21  -6.06  -5.95  -5.44  -4.73  -4.48
         -2.04  -1.79  -1.20  -0.70  -0.41  -0.33   0.55   0.68   1.16   1.53
          2.49   2.56   3.01   3.12   3.63   3.97   3.99   4.36   4.50   4.53
          4.93   5.03   5.53   5.71   5.73   5.90   5.91   6.11   6.20   6.40
          6.83   6.87   7.36   7.58   7.97   8.14   8.30   8.75   9.30   9.30
          9.50   9.55   9.66   9.73   9.76  10.14  10.17  10.33  10.39  10.53
         10.75  10.87  11.10  11.24  11.32  11.43  11.49  11.65  11.78  11.83
         12.06  12.29  12.31  12.32  12.33  12.50  12.58  12.79  12.83  12.93
         13.09  13.41  13.42  13.44  13.45  13.49  13.56  13.58  13.62  13.78
         14.06  14.28  14.38  14.42  14.56  14.79  14.82  14.92  14.96  15.18
         15.33  15.47  16.31  16.37  16.54  16.63  17.60  17.94  17.98  18.01
         18.12  18.54  18.82  19.03  19.09  19.12  19.26  19.29  19.52  19.60
         19.92  20.05  20.18  20.21  20.25  20.47  20.52  20.65  20.91  21.00
         21.17  21.29  21.42  21.56  21.57  21.95  22.00  22.05  22.22  22.22
         22.53  22.57  22.58  22.73  22.74  22.89  23.02  23.18  23.56  23.60
         23.80  23.87  24.22  24.29  24.41  24.60  25.21  25.35  25.46  25.53
         25.83  25.98  26.52  26.58  27.12  27.74  28.14  28.84  29.06  29.33
         30.84  31.24  31.51  31.72  32.07  32.52  32.97  33.13  33.14  33.19
         33.74  33.92  34.17  34.29  34.51  34.86  35.51  35.60  35.87  36.26
         36.54  36.66  36.73  36.83  37.92  38.14  38.18  38.27  38.88  39.51
         39.95  40.08  40.44  40.67  41.73  41.79  42.50  43.27  43.53  44.36
         44.36  44.64  44.66  44.79  45.39  46.10  46.11  47.07  47.07  47.32
         47.51  47.73  48.79  48.92  49.38  49.44  49.87  49.99  50.33  50.55
         50.72  50.74  51.40  51.56  52.04  52.87  52.95  53.11  53.60  53.65
         54.54  54.93  55.03  55.38  55.51  56.01  56.02  56.32  56.67  56.87
         56.90  57.18  57.27  57.58  58.18  58.23  58.84  59.60  60.03  60.26
         60.74  60.82  61.19  61.21  61.57  61.63  61.76  62.00  62.55  63.25
         63.41  63.98  64.21  64.68  64.81  64.82  66.30  66.50  68.29  68.64
         69.98  71.54  72.66  72.72  73.70  73.85  74.35  74.64  74.89  75.41
         75.50  75.55  75.72  76.18  77.38  77.54  77.92  78.59  79.55  79.64
         80.64  81.12  81.52  81.57  81.77  83.26  83.40  83.62  84.43  84.84
         85.21  86.44  87.28  87.93  90.24  92.13  93.53  94.57  96.11  96.66
         97.05  97.88 101.97 103.14 103.75 106.03 107.19 107.95 110.10 110.55
        112.24 112.54 118.54 118.98 120.06 120.70 127.53 129.69 131.19 133.74
        136.65 138.92 139.56 143.49 144.39 145.76 149.72 157.42 163.27 163.91
        169.46 172.88 173.69 174.32
  51  1 -21.80 -21.68 -21.01 -20.73 -19.75 -19.38 -19.19 -19.04 -18.37 -18.35
        -18.15 -17.60 -17.05 -16.92 -15.48 -15.30 -14.90 -14.63 -14.15 -14.02
        -13.41 -13.21 -12.96 -12.87 -12.65 -12.54 -11.70 -11.18 -10.93 -10.67
        -10.43 -10.38 -10.07  -9.85  -9.75  -9.68  -9.62  -9.36  -9.33  -9.27
         -8.97  -8.83  -8.68  -8.56  -8.53  -8.28  -7.83  -7.64  -7.61  -7.24
         -7.18  -7.16  -6.88  -6.81  -6.20  -6.06  -5.96  -5.44  -4.73  -4.48
         -2.04  -1.79  -1.20  -0.70  -0.39  -0.36   0.58   0.65   1.16   1.53
          2.49   2.56   3.01   3.12   3.63   3.97   3.99   4.36   4.50   4.52
          4.93   5.03   5.53   5.71   5.72   5.90   5.92   6.10   6.20   6.40
          6.85   6.86   7.36   7.57   7.97   8.14   8.30   8.75   9.30   9.30
          9.49   9.55   9.66   9.73   9.75  10.14  10.17  10.33  10.39  10.52
         10.74  10.87  11.10  11.24  11.32  11.43  11.49  11.65  11.78  11.83
         12.06  12.31  12.31  12.31  12.33  12.50  12.58  12.79  12.83  12.93
         13.09  13.41  13.42  13.44  13.45  13.48  13.56  13.58  13.61  13.78
         14.06  14.28  14.38  14.42  14.56  14.79  14.82  14.91  14.96  15.18
         15.34  15.46  16.32  16.37  16.54  16.63  17.60  17.94  17.98  18.01
         18.12  18.54  18.82  19.03  19.09  19.12  19.26  19.29  19.52  19.60
         19.92  20.05  20.18  20.22  20.24  20.47  20.51  20.64  20.91  21.00
         21.17  21.29  21.42  21.55  21.57  21.96  22.00  22.06  22.22  22.22
         22.54  22.57  22.58  22.73  22.74  22.89  23.02  23.18  23.56  23.60
         23.80  23.87  24.22  24.29  24.41  24.60  25.24  25.32  25.46  25.53
         25.83  25.98  26.53  26.57  27.12  27.74  28.14  28.84  29.06  29.33
         30.84  31.25  31.51  31.72  32.07  32.52  32.99  33.13  33.14  33.19
         33.74  33.92  34.17  34.31  34.49  34.86  35.51  35.60  35.87  36.26
         36.54  36.66  36.73  36.82  37.92  38.14  38.18  38.27  38.88  39.51
         39.95  40.08  40.44  40.67  41.73  41.79  42.51  43.27  43.53  44.36
         44.37  44.64  44.67  44.79  45.40  46.10  46.11  47.07  47.07  47.31
         47.50  47.73  48.78  48.92  49.38  49.44  49.87  49.99  50.33  50.57
         50.71  50.74  51.40  51.57  52.05  52.87  52.95  53.11  53.60  53.65
         54.56  54.91  55.03  55.41  55.51  56.00  56.02  56.31  56.68  56.87
         56.90  57.16  57.28  57.57  58.18  58.23  58.85  59.60  60.04  60.26
         60.75  60.81  61.19  61.21  61.60  61.64  61.72  62.00  62.55  63.25
         63.41  63.98  64.21  64.68  64.81  64.82  66.29  66.50  68.29  68.64
         69.98  71.55  72.66  72.72  73.71  73.86  74.35  74.65  74.87  75.41
         75.50  75.55  75.72  76.19  77.39  77.53  77.91  78.59  79.55  79.64
         80.65  81.13  81.51  81.58  81.76  83.26  83.41  83.62  84.44  84.83
         85.21  86.43  87.30  87.90  90.25  92.13  93.53  94.55  96.12  96.65
         97.05  97.87 101.97 103.16 103.74 106.03 107.20 107.95 110.10 110.58
        112.22 112.54 118.61 118.92 120.06 120.69 127.53 129.71 131.17 133.73
        136.67 138.93 139.52 143.78 144.33 145.56 149.73 157.42 163.31 163.87
        169.46 172.92 173.65 174.30
  51  2 -21.80 -21.68 -21.01 -20.73 -19.75 -19.38 -19.19 -19.04 -18.37 -18.35
        -18.15 -17.60 -17.05 -16.92 -15.48 -15.30 -14.90 -14.63 -14.15 -14.02
        -13.41 -13.21 -12.96 -12.87 -12.65 -12.54 -11.70 -11.18 -10.93 -10.67
        -10.43 -10.38 -10.07  -9.85  -9.75  -9.68  -9.62  -9.36  -9.33  -9.27
         -8.97  -8.83  -8.68  -8.56  -8.53  -8.28  -7.83  -7.64  -7.61  -7.24
         -7.18  -7.16  -6.88  -6.81  -6.20  -6.06  -5.96  -5.44  -4.73  -4.48
         -2.04  -1.79  -1.20  -0.70  -0.39  -0.36   0.58   0.65   1.16   1.53
          2.49   2.56   3.01   3.12   3.63   3.97   3.99   4.36   4.50   4.52
          4.93   5.03   5.53   5.71   5.72   5.90   5.92   6.10   6.20   6.40
          6.85   6.86   7.36   7.57   7.97   8.14   8.30   8.75   9.30   9.30
          9.49   9.55   9.66   9.73   9.75  10.14  10.17  10.33  10.39  10.52
         10.74  10.87  11.10  11.24  11.32  11.43  11.49  11.65  11.78  11.83
         12.06  12.31  12.31  12.31  12.33  12.50  12.58  12.79  12.83  12.93
         13.09  13.41  13.42  13.44  13.45  13.48  13.56  13.58  13.61  13.78
         14.06  14.28  14.38  14.42  14.56  14.79  14.82  14.91  14.96  15.18
         15.34  15.46  16.32  16.37  16.54  16.63  17.60  17.94  17.98  18.01
         18.12  18.54  18.82  19.03  19.09  19.12  19.26  19.29  19.52  19.60
         19.92  20.05  20.18  20.22  20.24  20.47  20.51  20.64  20.91  21.00
         21.17  21.29  21.42  21.55  21.57  21.96  22.00  22.06  22.22  22.22
         22.54  22.57  22.58  22.73  22.74  22.89  23.02  23.18  23.56  23.60
         23.80  23.87  24.22  24.29  24.41  24.60  25.24  25.32  25.46  25.53
         25.83  25.98  26.53  26.57  27.12  27.74  28.14  28.84  29.06  29.33
         30.84  31.25  31.51  31.72  32.07  32.52  32.99  33.13  33.14  33.19
         33.74  33.92  34.17  34.31  34.49  34.86  35.51  35.60  35.87  36.26
         36.54  36.66  36.73  36.82  37.92  38.14  38.18  38.27  38.88  39.51
         39.95  40.08  40.44  40.67  41.73  41.79  42.51  43.27  43.53  44.36
         44.37  44.64  44.67  44.79  45.40  46.10  46.11  47.07  47.07  47.31
         47.50  47.73  48.78  48.92  49.38  49.44  49.87  49.99  50.33  50.57
         50.71  50.74  51.40  51.57  52.05  52.87  52.95  53.11  53.60  53.65
         54.56  54.91  55.03  55.41  55.51  56.00  56.02  56.31  56.68  56.87
         56.90  57.16  57.28  57.57  58.18  58.23  58.85  59.60  60.04  60.26
         60.75  60.81  61.19  61.21  61.60  61.64  61.72  62.00  62.55  63.25
         63.41  63.98  64.21  64.68  64.81  64.82  66.29  66.50  68.29  68.64
         69.98  71.55  72.66  72.72  73.71  73.86  74.35  74.65  74.87  75.41
         75.50  75.55  75.72  76.19  77.39  77.53  77.91  78.59  79.55  79.64
         80.65  81.13  81.51  81.58  81.76  83.26  83.41  83.62  84.44  84.83
         85.21  86.43  87.30  87.90  90.25  92.13  93.53  94.55  96.12  96.65
         97.05  97.87 101.97 103.16 103.74 106.03 107.20 107.95 110.10 110.58
        112.22 112.54 118.61 118.92 120.06 120.69 127.53 129.71 131.17 133.73
        136.67 138.93 139.52 143.78 144.33 145.56 149.73 157.42 163.31 163.87
        169.46 172.92 173.65 174.30
siesta: Fermi energy =      -3.311422 eV

siesta: Program's energy decomposition (eV):
siesta: Ebs     =     -1439.699749
siesta: Eions   =      5801.107167
siesta: Ena     =       588.509510
siesta: Ekin    =      3243.209664
siesta: Enl     =     -1018.101359
siesta: Eso     =         0.000000
siesta: Eldau   =         0.000000
siesta: DEna    =       -71.643144
siesta: DUscf   =         7.613410
siesta: DUext   =         0.000000
siesta: Enegf   =         0.000000
siesta: Exc     =     -1405.367333
siesta: eta*DQ  =         0.000000
siesta: Emadel  =         0.000000
siesta: Emeta   =         0.000000
siesta: Emolmec =         0.000000
siesta: Ekinion =         0.000000
siesta: Eharris =     -4456.886418
siesta: Etot    =     -4456.886418
siesta: FreeEng =     -4456.886666

siesta: Final energy (eV):
siesta:  Band Struct. =   -1439.699749
siesta:       Kinetic =    3243.209664
siesta:       Hartree =   36492.724750
siesta:       Eldau   =       0.000000
siesta:       Eso     =       0.000000
siesta:    Ext. field =       0.000000
siesta:       Enegf   =       0.000000
siesta:   Exch.-corr. =   -1405.367333
siesta:  Ion-electron =  -75840.177201
siesta:       Ion-ion =   33052.723702
siesta:       Ekinion =       0.000000
siesta:         Total =   -4456.886418
siesta:         Fermi =      -3.311422

siesta: Stress tensor (static) (eV/Ang**3):
siesta:    -0.000490    0.000003    0.000000
siesta:     0.000003   -0.000005    0.000000
siesta:     0.000000   -0.000000    0.000002

siesta: Cell volume =       8970.000000 Ang**3

siesta: Pressure (static):
siesta:                Solid            Molecule  Units
siesta:           0.00000179          0.00000178  Ry/Bohr**3
siesta:           0.00016399          0.00016388  eV/Ang**3
siesta:           0.26274872          0.26256232  kBar
(Free)E+ p_basis*V_orbitals  =       -4447.043544
(Free)Eharris+ p_basis*V_orbitals  =       -4447.043544

siesta: Total spin polarization (Qup-Qdown) =   -0.000000

siesta: Electric dipole (a.u.)  =    0.000000   -0.000360   -0.000000
siesta: Electric dipole (Debye) =    0.000000   -0.000915   -0.000000

Hirshfeld Net Atomic Populations:
Atom #    Qatom  Species
     1    0.020  H.mpn               
     2    0.004  C.mpn               
     3    0.022  H.mpn               
     4   -0.033  C.mpn               
     5    0.006  C.mpn               
     6   -0.000  C.mpn               
     7    0.000  C.mpn               
     8    0.005  C.mpn               
     9    0.024  H.mpn               
    10    0.026  H.mpn               
    11   -0.031  C.mpn               
    12    0.007  C.mpn               
    13    0.001  C.mpn               
    14    0.000  C.mpn               
    15    0.000  C.mpn               
    16    0.002  C.mpn               
    17   -0.028  C.mpn               
    18   -0.026  C.mpn               
    19   -0.026  C.mpn               
    20   -0.028  C.mpn               
    21    0.002  C.mpn               
    22    0.000  C.mpn               
    23    0.000  C.mpn               
    24    0.001  C.mpn               
    25    0.007  C.mpn               
    26   -0.031  C.mpn               
    27    0.026  H.mpn               
    28    0.024  H.mpn               
    29    0.005  C.mpn               
    30    0.000  C.mpn               
    31   -0.000  C.mpn               
    32    0.006  C.mpn               
    33   -0.033  C.mpn               
    34    0.022  H.mpn               
    35    0.004  C.mpn               
    36    0.020  H.mpn               

Voronoi Net Atomic Populations:
Atom #    Qatom  Species
     1   -0.000  H.mpn               
     2    0.002  C.mpn               
     3   -0.001  H.mpn               
     4   -0.008  C.mpn               
     5    0.005  C.mpn               
     6   -0.000  C.mpn               
     7    0.002  C.mpn               
     8    0.006  C.mpn               
     9    0.002  H.mpn               
    10    0.002  H.mpn               
    11   -0.007  C.mpn               
    12    0.006  C.mpn               
    13    0.002  C.mpn               
    14    0.000  C.mpn               
    15   -0.002  C.mpn               
    16    0.003  C.mpn               
    17   -0.003  C.mpn               
    18   -0.002  C.mpn               
    19   -0.003  C.mpn               
    20   -0.001  C.mpn               
    21    0.000  C.mpn               
    22    0.000  C.mpn               
    23   -0.002  C.mpn               
    24    0.002  C.mpn               
    25    0.005  C.mpn               
    26   -0.006  C.mpn               
    27    0.001  H.mpn               
    28   -0.000  H.mpn               
    29    0.004  C.mpn               
    30    0.000  C.mpn               
    31   -0.002  C.mpn               
    32    0.006  C.mpn               
    33   -0.009  C.mpn               
    34   -0.002  H.mpn               
    35    0.003  C.mpn               
    36   -0.000  H.mpn               
>> End of run:  26-MAR-2018  13:01:04
Job completed
Job completed
