Siesta Version  : siesta-4.1--852
Architecture    : unknown
Compiler version: ifort (IFORT) 17.0.4 20170411
Compiler flags  : mpiifort -O1 -xHost -mp1 -fpp -ftz -I/scicomp/easybuild/CentOS/7.3.1611/Hasweell/software/imkl/2017.3.196-iimpi-2017b/mkl/include -I/scratch/scicomp/easybuild/CentOS/7.3.1611/Haswell/software/netCDF-Fortran/4.4.4-intel-2017b/include -I/scratch/scicomp/easybuild/CentOS/7.3.1611/Haswell/software/netCDF/4.4.1.1-intel-2017b/include
PP flags        :  -DFC_HAVE_ABORT -DMPI -DCDF -DNCDF -DNCDF_4 -DGRID_DP -DNCDF_PARALLEL
Libraries       : libncdf.a libfdict.a -L/scratch/scicomp/easybuild/CentOS/7.3.1611/Haswell/sofftware/netCDF-Fortran/4.4.4-intel-2017b/lib -lnetcdff -L/scratch/scicomp/easybuild/CentOS/7.3.1611/Haswell/software/cURL/7.56.0-GCCcore-6.4.0/lib -lcurl -L/scratch/scicomp/easybuild/CentOS/7.3.1611/Haswell/software/netCDF/4.4.1.1-intel-2017b/lib64 -lnetcdf -L/scratch/scicomp/easybuild/CentOS/7.3.1611/Haswell/software/HDF5/1.10.1-intel-2017b/lib -lhdf5hl_fortran -lhdf5_fortran -lhdf5_hl -lhdf5 -L/scratch/scicomp/easybuild/CentOS/7.3.1611/Haswell/software/Szip/2.1.1-GCCcore-6.4.0/lib -lsz -L/scratch/scicomp/easybuild/CentOS/7.3.1611/Haswell/software/zlib/1.2.11-GCCcore-6.4.0/lib -lz /scicomp/easybuild/CentOS/7.3.1611/Haswell/software/imkl/2017.3.196-iimpi-2017b/mkl/lib/intel64/libmkl_scalapack_lp64.a -Wl,--start-group /scicomp/easybuild/CentOS/7.3.1611/Haswell/software/imkl/2017.3.196-iimpi-2017b/mkl/lib/intel64/libmkl_intel_lp64.a /scicomp/easybuild/CentOS/7.3.1611/Haswell/software/imkl/2017.3.196-iimpi-2017b/mkl/lib/intel64/libmkl_sequential.a /scicomp/easybuild/CentOS/7.3.1611/Haswell/software/imkl/2017.3.196-iimpi-2017b/mkl/lib/intel64/libmkl_core.a /scicomp/easybuild/CentOS/7.3.1611/Haswell/software/imkl/2017.3.196-iimpi-2017b/mkl/lib/intel64/libmkl_blacs_intelmpi_lp64.a -Wl,--end-group -lpthread -lm -ldl
PARALLEL version
NetCDF support
NetCDF-4 support
NetCDF-4 MPI-IO support

* Running on 24 nodes in parallel
>> Start of run:  16-APR-2018  21:40:05

                           ***********************       
                           *  WELCOME TO SIESTA  *       
                           ***********************       

reinit: Reading from standard input
reinit: Dumped input in INPUT_TMP.78310
************************** Dump of input data file ****************************
SystemTitle molecule
SystemLabel molecule
SolutionMethod     diagon
TS.HS.Save         true
MD.TypeOfRun  CG
MD.TypeOfRun  Broyden
MD.Broyden.Cycle.On.Maxit F
MD.NumCGsteps  1000
MD.MaxForceTol 0.002 eV/Ang
Diag.ParallelOverK true
%block kgrid_Monkhorst_Pack
 100    0    0    0.0
  0    1    0    0.0
  0    0    1    0.0
%endblock kgrid_Monkhorst_Pack
MaxSCFIterations      3000
SCFMustConverge       true
DM.Tolerance          1.d-5
DM.UseSaveDM          true
DM.NumberPulay	      7
DM.MixingWeight       0.1
MD.UseSaveXV          true
XC.functional         LDA
XC.authors     	      CA
MeshCutoff            400. Ry
PAO.BasisSize   DZP
PAO.BasisType   split
%block ChemicalSpeciesLabel
    1   1 H.ca
    2   6 C.ca2
%endblock ChemicalSpeciesLabel
%include STRUCT.fdf
SpinPolarized   true
#FixSpin  true
#Spin.Fix true
#Spin.Total 0
#TotalSpin  0
%block DM.InitSpin
41   1.
10  -1.
%endblock DM.InitSpin
WriteMullikenPop 1
WriteHirshfeldPop true
WriteVoronoiPop true
WriteEigenvalues true
WriteWaveFunctions true
************************** End of input data file *****************************

reinit: -----------------------------------------------------------------------
reinit: System Name: 
reinit: -----------------------------------------------------------------------
reinit: System Label: molecule
reinit: -----------------------------------------------------------------------

initatom: Reading input for the pseudopotentials and atomic orbitals ----------
Species number:   1 Atomic number:    1 Label: H.ca
Species number:   2 Atomic number:    6 Label: C.ca2
 
Ground state valence configuration:   1s01
Reading pseudopotential information in formatted form from H.ca.psf

Pseudopotential generated from a relativistic atomic calculation

Valence configuration for pseudopotential generation:
1s( 1.00) rc: 1.31
2p( 0.00) rc: 1.31
3d( 0.00) rc: 0.37
4f( 0.00) rc: 1.31
Ground state valence configuration:   2s02  2p02
Reading pseudopotential information in formatted form from C.ca2.psf

Pseudopotential generated from a relativistic atomic calculation

Valence configuration for pseudopotential generation:
2s( 2.00) rc: 1.54
2p( 2.00) rc: 1.54
3d( 0.00) rc: 1.54
4f( 0.00) rc: 1.54
For H.ca, standard SIESTA heuristics set lmxkb to 2
 (one more than the basis l, including polarization orbitals).
Use PS.lmax or PS.KBprojectors blocks to override.
For C.ca2, standard SIESTA heuristics set lmxkb to 3
 (one more than the basis l, including polarization orbitals).
Use PS.lmax or PS.KBprojectors blocks to override.

<basis_specs>
===============================================================================
H.ca                 Z=   1    Mass=  1.0100        Charge= 0.17977+309
Lmxo=0 Lmxkb= 2    BasisType=split      Semic=F
L=0  Nsemic=0  Cnfigmx=1
          n=1  nzeta=2  polorb=1
            splnorm:   0.15000    
               vcte:    0.0000    
               rinn:    0.0000    
               qcoe:    0.0000    
               qyuk:    0.0000    
               qwid:   0.10000E-01
                rcs:    0.0000      0.0000    
            lambdas:    1.0000      1.0000    
-------------------------------------------------------------------------------
L=0  Nkbl=1  erefs: 0.17977+309
L=1  Nkbl=1  erefs: 0.17977+309
L=2  Nkbl=1  erefs: 0.17977+309
===============================================================================
</basis_specs>

atom: Called for H.ca                  (Z =   1)

read_vps: Pseudopotential generation method:
read_vps: ATM3.3.2  Troullier-Martins                       
Total valence charge:    1.00000

xc_check: Exchange-correlation functional:
xc_check: Ceperley-Alder
V l=0 = -2*Zval/r beyond r=  1.2977
V l=1 = -2*Zval/r beyond r=  1.2815
V l=2 = -2*Zval/r beyond r=  1.1307
All V_l potentials equal beyond r=  1.2977
This should be close to max(r_c) in ps generation
All pots = -2*Zval/r beyond r=  1.2977

VLOCAL1: 99.0% of the norm of Vloc inside     25.776 Ry
VLOCAL1: 99.9% of the norm of Vloc inside     58.745 Ry
atom: Maximum radius for 4*pi*r*r*local-pseudopot. charge    1.52711
atom: Maximum radius for r*vlocal+2*Zval:    1.28155
GHOST: No ghost state for L =  0
GHOST: No ghost state for L =  1
GHOST: No ghost state for L =  2

KBgen: Kleinman-Bylander projectors: 
   l= 0   rc=  1.452513   el= -0.467311   Ekb= -1.940806   kbcos= -0.353010
   l= 1   rc=  1.752576   el=  0.001430   Ekb= -0.484365   kbcos= -0.024070
   l= 2   rc=  1.774652   el=  0.002365   Ekb= -0.503986   kbcos= -0.001615

KBgen: Total number of  Kleinman-Bylander projectors:    9
atom: -------------------------------------------------------------------------

atom: SANKEY-TYPE ORBITALS:
atom: Selected multiple-zeta basis: split     

SPLIT: Orbitals with angular momentum L= 0

SPLIT: Basis orbitals for state 1s

SPLIT: PAO cut-off radius determined from an
SPLIT: energy shift=  0.020000 Ry

   izeta = 1
                 lambda =    1.000000
                     rc =    4.828263
                 energy =   -0.449360
                kinetic =    0.925772
    potential(screened) =   -1.375132
       potential(ionic) =   -1.911259

   izeta = 2
                 rmatch =    3.854947
              splitnorm =    0.150000
                 energy =   -0.336131
                kinetic =    1.498125
    potential(screened) =   -1.834256
       potential(ionic) =   -2.406171

POLgen: Perturbative polarization orbital with L=  1

POLgen: Polarization orbital for state 1s

   izeta = 1
                     rc =    4.828263
                 energy =    0.707058
                kinetic =    1.398648
    potential(screened) =   -0.691590
       potential(ionic) =   -1.171958
atom: Total number of Sankey-type orbitals:  5

atm_pop: Valence configuration (for local Pseudopot. screening):
 1s( 1.00)                                                            
Vna: chval, zval:    1.00000   1.00000

Vna:  Cut-off radius for the neutral-atom potential:   4.828263

atom: _________________________________________________________________________

<basis_specs>
===============================================================================
C.ca2                Z=   6    Mass=  12.010        Charge= 0.17977+309
Lmxo=1 Lmxkb= 3    BasisType=split      Semic=F
L=0  Nsemic=0  Cnfigmx=2
          n=1  nzeta=2  polorb=0
            splnorm:   0.15000    
               vcte:    0.0000    
               rinn:    0.0000    
               qcoe:    0.0000    
               qyuk:    0.0000    
               qwid:   0.10000E-01
                rcs:    0.0000      0.0000    
            lambdas:    1.0000      1.0000    
L=1  Nsemic=0  Cnfigmx=2
          n=1  nzeta=2  polorb=1
            splnorm:   0.15000    
               vcte:    0.0000    
               rinn:    0.0000    
               qcoe:    0.0000    
               qyuk:    0.0000    
               qwid:   0.10000E-01
                rcs:    0.0000      0.0000    
            lambdas:    1.0000      1.0000    
-------------------------------------------------------------------------------
L=0  Nkbl=1  erefs: 0.17977+309
L=1  Nkbl=1  erefs: 0.17977+309
L=2  Nkbl=1  erefs: 0.17977+309
L=3  Nkbl=1  erefs: 0.17977+309
===============================================================================
</basis_specs>

atom: Called for C.ca2                 (Z =   6)

read_vps: Pseudopotential generation method:
read_vps: ATM3.3.2  Troullier-Martins                       
Total valence charge:    4.00000

xc_check: Exchange-correlation functional:
xc_check: Ceperley-Alder
V l=0 = -2*Zval/r beyond r=  1.5227
V l=1 = -2*Zval/r beyond r=  1.5227
V l=2 = -2*Zval/r beyond r=  1.5227
V l=3 = -2*Zval/r beyond r=  1.5038
All V_l potentials equal beyond r=  1.5227
This should be close to max(r_c) in ps generation
All pots = -2*Zval/r beyond r=  1.5227

VLOCAL1: 99.0% of the norm of Vloc inside     18.722 Ry
VLOCAL1: 99.9% of the norm of Vloc inside     42.668 Ry
atom: Maximum radius for 4*pi*r*r*local-pseudopot. charge    1.83678
atom: Maximum radius for r*vlocal+2*Zval:    1.58088
GHOST: No ghost state for L =  0
GHOST: No ghost state for L =  1
GHOST: No ghost state for L =  2
GHOST: No ghost state for L =  3

KBgen: Kleinman-Bylander projectors: 
   l= 0   rc=  1.769164   el= -1.002383   Ekb=  4.944706   kbcos=  0.320005
   l= 1   rc=  1.769164   el= -0.398438   Ekb= -4.111874   kbcos= -0.367023
   l= 2   rc=  2.107589   el=  0.002326   Ekb= -1.050436   kbcos= -0.009341
   l= 3   rc=  2.358593   el=  0.003420   Ekb= -0.444500   kbcos= -0.001214

KBgen: Total number of  Kleinman-Bylander projectors:   16
atom: -------------------------------------------------------------------------

atom: SANKEY-TYPE ORBITALS:
atom: Selected multiple-zeta basis: split     

SPLIT: Orbitals with angular momentum L= 0

SPLIT: Basis orbitals for state 2s

SPLIT: PAO cut-off radius determined from an
SPLIT: energy shift=  0.020000 Ry

   izeta = 1
                 lambda =    1.000000
                     rc =    4.191849
                 energy =   -0.984359
                kinetic =    0.881234
    potential(screened) =   -1.865594
       potential(ionic) =   -5.477335

   izeta = 2
                 rmatch =    3.431921
              splitnorm =    0.150000
                 energy =   -0.853663
                kinetic =    1.298382
    potential(screened) =   -2.152045
       potential(ionic) =   -5.997528

SPLIT: Orbitals with angular momentum L= 1

SPLIT: Basis orbitals for state 2p

SPLIT: PAO cut-off radius determined from an
SPLIT: energy shift=  0.020000 Ry

   izeta = 1
                 lambda =    1.000000
                     rc =    4.870301
                 energy =   -0.378923
                kinetic =    2.540340
    potential(screened) =   -2.919263
       potential(ionic) =   -6.428536

   izeta = 2
                 rmatch =    3.475094
              splitnorm =    0.150000
                 energy =   -0.214881
                kinetic =    3.815219
    potential(screened) =   -4.030100
       potential(ionic) =   -7.921348

POLgen: Perturbative polarization orbital with L=  2

POLgen: Polarization orbital for state 2p

   izeta = 1
                     rc =    4.870301
                 energy =    1.281120
                kinetic =    2.631157
    potential(screened) =   -1.350037
       potential(ionic) =   -4.295491
atom: Total number of Sankey-type orbitals: 13

atm_pop: Valence configuration (for local Pseudopot. screening):
 2s( 2.00)                                                            
 2p( 2.00)                                                            
Vna: chval, zval:    4.00000   4.00000

Vna:  Cut-off radius for the neutral-atom potential:   4.870301

atom: _________________________________________________________________________

prinput: Basis input ----------------------------------------------------------

PAO.BasisType split     

%block ChemicalSpeciesLabel
    1    1 H.ca                    # Species index, atomic number, species label
    2    6 C.ca2                   # Species index, atomic number, species label
%endblock ChemicalSpeciesLabel

%block PAO.Basis                 # Define Basis set
H.ca                  1                    # Species label, number of l-shells
 n=1   0   2 P   1                   # n, l, Nzeta, Polarization, NzetaPol
   4.828      3.855   
   1.000      1.000   
C.ca2                 2                    # Species label, number of l-shells
 n=2   0   2                         # n, l, Nzeta 
   4.192      3.432   
   1.000      1.000   
 n=2   1   2 P   1                   # n, l, Nzeta, Polarization, NzetaPol
   4.870      3.475   
   1.000      1.000   
%endblock PAO.Basis

prinput: ----------------------------------------------------------------------

Dumping basis to NetCDF file H.ca.ion.nc
Dumping basis to NetCDF file C.ca2.ion.nc
coor:   Atomic-coordinates input format  =     Cartesian coordinates
coor:                                          (in Angstroms)

siesta: WARNING: XV file not found

siesta: Atomic coordinates (Bohr) and species
siesta:     22.11282  11.47123  18.89727  1        1
siesta:     20.63541  15.28630  18.89727  2        2
siesta:     26.59035  10.46808  18.89727  1        3
siesta:     22.54716  13.51001  18.89727  2        4
siesta:     25.09841  14.27635  18.89727  2        5
siesta:     21.20504  17.85313  18.89727  2        6
siesta:     23.71314  18.71522  18.89727  2        7
siesta:     22.44340  23.22879  18.89727  2        8
siesta:     31.05462   9.40980  18.89727  1        9
siesta:     27.05901  12.50213  18.89727  2       10
siesta:     29.59844  13.23887  18.89727  2       11
siesta:     25.69363  16.91293  18.89727  2       12
siesta:     28.25799  17.70268  18.89727  2       13
siesta:     24.33463  21.36332  18.89727  2       14
siesta:     26.89487  22.14750  18.89727  2       15
siesta:     23.02540  25.75237  18.89727  2       16
siesta:     25.54830  26.59884  18.89727  2       17
siesta:     24.26054  31.10341  18.89727  2       18
siesta:     31.55667  11.43294  18.89727  2       19
siesta:     34.05316  12.19296  18.89727  2       20
siesta:     30.21770  15.86983  18.89727  2       21
siesta:     32.78736  16.62324  18.89727  2       22
siesta:     28.86064  20.31649  18.89727  2       23
siesta:     31.42975  21.10195  18.89727  2       24
siesta:     27.50246  24.77415  18.89727  2       25
siesta:     30.07201  25.57018  18.89727  2       26
siesta:     26.15862  29.23693  18.89727  2       27
siesta:     28.71449  30.02031  18.89727  2       28
siesta:     24.84174  33.62358  18.89727  2       29
siesta:     27.36550  34.47038  18.89727  2       30
siesta:     26.07442  38.97482  18.89727  2       31
siesta:     35.57592  10.77211  18.89727  1       32
siesta:     34.66486  14.75010  18.89727  2       33
siesta:     33.38831  19.27611  18.89727  2       34
siesta:     35.90550  20.12509  18.89727  2       35
siesta:     32.03354  23.72948  18.89727  2       36
siesta:     34.58940  24.51415  18.89727  2       37
siesta:     30.67336  28.17764  18.89727  2       38
siesta:     33.24133  28.97648  18.89727  2       39
siesta:     29.32015  32.64678  18.89727  2       40
siesta:     31.88810  33.44561  18.89727  2       41
siesta:     27.97212  37.10931  18.89727  2       42
siesta:     30.52800  37.89406  18.89727  2       43
siesta:     26.65617  41.49845  18.89727  2       44
siesta:     29.17334  42.34749  18.89727  2       45
siesta:     27.89669  46.87359  18.89727  2       46
siesta:     26.98558  50.85139  18.89727  1       47
siesta:     36.48714  22.64869  18.89727  2       48
siesta:     35.19597  27.15294  18.89727  2       49
siesta:     37.71971  27.99967  18.89727  2       50
siesta:     33.84702  31.60295  18.89727  2       51
siesta:     36.40289  32.38641  18.89727  2       52
siesta:     32.48935  36.05315  18.89727  2       53
siesta:     35.05886  36.84929  18.89727  2       54
siesta:     31.13190  40.52157  18.89727  2       55
siesta:     33.70092  41.30715  18.89727  2       56
siesta:     29.77418  45.00043  18.89727  2       57
siesta:     32.34385  45.75376  18.89727  2       58
siesta:     28.50838  49.43069  18.89727  2       59
siesta:     31.00482  50.19069  18.89727  2       60
siesta:     38.30096  30.51982  18.89727  2       61
siesta:     37.01303  35.02465  18.89727  2       62
siesta:     39.53598  35.87096  18.89727  2       63
siesta:     35.66649  39.47594  18.89727  2       64
siesta:     38.22683  40.26001  18.89727  2       65
siesta:     34.30359  43.92100  18.89727  2       66
siesta:     36.86797  44.71071  18.89727  2       67
siesta:     32.96309  48.38477  18.89727  2       68
siesta:     35.50255  49.12147  18.89727  2       69
siesta:     31.50685  52.21379  18.89727  1       70
siesta:     40.11806  38.39448  18.89727  2       71
siesta:     38.84827  42.90816  18.89727  2       72
siesta:     41.35638  43.77034  18.89727  2       73
siesta:     37.46320  47.34735  18.89727  2       74
siesta:     40.01446  48.11364  18.89727  2       75
siesta:     35.97132  51.15548  18.89727  1       76
siesta:     41.92605  46.33721  18.89727  2       77
siesta:     40.44888  50.15241  18.89727  1       78

siesta: System type = chain     

initatomlists: Number of atoms, orbitals, and projectors:     78   950  1192

siesta: ******************** Simulation parameters ****************************
siesta:
siesta: The following are some of the parameters of the simulation.
siesta: A complete list of the parameters used, including default values,
siesta: can be found in file out.fdf
siesta:
redata: Spin configuration                          = collinear
redata: Number of spin components                   = 2
redata: Time-Reversal Symmetry                      = T
redata: Spin-spiral                                 = F
redata: Long output                                 =   F
redata: Number of Atomic Species                    =        2
redata: Charge density info will appear in .RHO file
redata: Write Mulliken Pop.                         = Atomic and Orbital charges
redata: Mesh Cutoff                                 =   400.0000 Ry
redata: Net charge of the system                    =     0.0000 |e|
redata: Min. number of SCF Iter                     =        0
redata: Max. number of SCF Iter                     =     3000
redata: SCF convergence failure will abort job
redata: SCF mix quantity                            = Hamiltonian
redata: Mix DM or H after convergence               =   F
redata: Recompute H after scf cycle                 =   F
redata: Mix DM in first SCF step                    =   T
redata: Write Pulay info on disk                    =   F
redata: New DM Mixing Weight                        =     0.1000
redata: New DM Occupancy tolerance                  = 0.000000000001
redata: No kicks to SCF
redata: DM Mixing Weight for Kicks                  =     0.5000
redata: Require Harris convergence for SCF          =   F
redata: Harris energy tolerance for SCF             =     0.000100 eV
redata: Require DM convergence for SCF              =   T
redata: DM tolerance for SCF                        =     0.000010
redata: Require EDM convergence for SCF             =   F
redata: EDM tolerance for SCF                       =     0.001000 eV
redata: Require H convergence for SCF               =   T
redata: Hamiltonian tolerance for SCF               =     0.001000 eV
redata: Require (free) Energy convergence for SCF   =   F
redata: (free) Energy tolerance for SCF             =     0.000100 eV
redata: Antiferro initial spin density              =   F
redata: Using Saved Data (generic)                  =   F
redata: Use continuation files for DM               =   T
redata: Neglect nonoverlap interactions             =   F
redata: Method of Calculation                       = Diagonalization
redata: Electronic Temperature                      =   299.9869 K
redata: Fix the spin of the system                  =   F
redata: Dynamics option                             = CG coord. optimization
redata: Variable cell                               =   F
redata: Use continuation files for CG               =   F
redata: Max atomic displ per move                   =     0.1058 Ang
redata: Maximum number of CG moves                  =     1000
redata: Force tolerance                             =     0.0020 eV/Ang
mix.SCF: Pulay mixing                            = Pulay
mix.SCF:    Variant                              = stable
mix.SCF:    History steps                        = 7
mix.SCF:    Linear mixing weight                 =     0.100000
mix.SCF:    Mixing weight                        =     0.100000
mix.SCF:    SVD condition                        = 0.1000E-07
mix.SCF: Spin-component mixing                   all
redata: Save all siesta data in one NC              =   F
redata: ***********************************************************************

%block SCF.Mixers
  Pulay
%endblock SCF.Mixers

%block SCF.Mixer.Pulay
  # Mixing method
  method pulay
  variant stable

  # Mixing options
  weight 0.1000
  weight.linear 0.1000
  history 7
%endblock SCF.Mixer.Pulay
 
DM_history_depth set to one: no extrapolation allowed by default for geometry relaxation
Size of DM history Fstack: 1
Total number of electrons:   288.000000
Total ionic charge:   288.000000

* ProcessorY, Blocksize:    4  24


* Orbital distribution balance (max,min):    48    24

k-point displ. along   1 input, could be:     0.00    0.50
 Kpoints in:           51 . Kpoints trimmed:           51

siesta: k-grid: Number of k-points =    51
siesta: k-grid: Cutoff (effective) =    10.000 Ang
siesta: k-grid: Supercell and displacements
siesta: k-grid:  100   0   0      0.000
siesta: k-grid:    0   1   0      0.000
siesta: k-grid:    0   0   1      0.000
 
diag: Algorithm                                     = D&C
diag: Parallel over k                               =   T
diag: Use parallel 2D distribution                  =   T
diag: Parallel block-size                           = 24
diag: Parallel distribution                         =     4 x     6
diag: Used triangular part                          = Lower
diag: Absolute tolerance                            =  0.100E-15
diag: Orthogonalization factor                      =  0.100E-05
diag: Memory factor                                 =  1.0000

superc: Internal auxiliary supercell:     3 x     1 x     1  =       3
superc: Number of atoms, orbitals, and projectors:    234   2850   3576
 
 
ts: **************************************************************
ts: Save H and S matrices                           =    T
ts: Save DM and EDM matrices                        =    F
ts: Fix Hartree potential                           =    F
ts: Only save the overlap matrix S                  =    F
ts: **************************************************************
 
************************ Begin: TS CHECKS AND WARNINGS ************************
************************ End: TS CHECKS AND WARNINGS **************************


                     ====================================
                        Begin CG opt. move =      0
                     ====================================

superc: Internal auxiliary supercell:     3 x     1 x     1  =       3
superc: Number of atoms, orbitals, and projectors:    234   2850   3576

outcell: Unit cell vectors (Ang):
        8.870000    0.000000    0.000000
        0.000000   50.000000    0.000000
        0.000000    0.000000   20.000000

outcell: Cell vector modules (Ang)   :    8.870000   50.000000   20.000000
outcell: Cell angles (23,13,12) (deg):     90.0000     90.0000     90.0000
outcell: Cell volume (Ang**3)        :   8870.0000
<dSpData1D:S at geom step 0
  <sparsity:sparsity for geom step 0
    nrows_g=950 nrows=48 sparsity=.0300 nnzs=27065, refcount: 7>
  <dData1D:(new from dSpData1D) n=27065, refcount: 1>
refcount: 1>
new_DM -- step:     1
Initializing Density Matrix...
 
Attempting to read DM from file... Failed...
DM filled with atomic data (user-defined):
<dSpData2D:DM initialized from atoms
  <sparsity:sparsity for geom step 0
    nrows_g=950 nrows=48 sparsity=.0300 nnzs=27065, refcount: 8>
  <dData2D:DM n=27065 m=2, refcount: 1>
refcount: 1>

initDM: Initial spin polarization (Qup-Qdown) =    0.000000

No. of atoms with KB's overlaping orbs in proc 0. Max # of overlaps:      50     217
New grid distribution:   1
           1       1:   54    1:   80    1:   21
           2       1:   54    1:   80   22:   42
           3       1:   54    1:   80   43:   63
           4       1:   54    1:   80   64:   84
           5       1:   54    1:   80   85:  105
           6       1:   54    1:   80  106:  125
           7       1:   54   81:  160    1:   21
           8       1:   54   81:  160   22:   42
           9       1:   54   81:  160   43:   63
          10       1:   54   81:  160   64:   84
          11       1:   54   81:  160   85:  105
          12       1:   54   81:  160  106:  125
          13       1:   54  161:  240    1:   21
          14       1:   54  161:  240   22:   42
          15       1:   54  161:  240   43:   63
          16       1:   54  161:  240   64:   84
          17       1:   54  161:  240   85:  105
          18       1:   54  161:  240  106:  125
          19       1:   54  241:  320    1:   21
          20       1:   54  241:  320   22:   42
          21       1:   54  241:  320   43:   63
          22       1:   54  241:  320   64:   84
          23       1:   54  241:  320   85:  105
          24       1:   54  241:  320  106:  125

InitMesh: MESH =   108 x   640 x   250 =    17280000
InitMesh: (bp) =    54 x   320 x   125 =     2160000
InitMesh: Mesh cutoff (required, used) =   400.000   409.734 Ry
ExtMesh (bp) on 0 =   118 x   148 x    89 =     1554296
New grid distribution:   2
           1       1:   54    1:   50    1:   63
           2       1:   54   73:   83    1:   63
           3       1:   54   51:   72   64:   67
           4       1:   54   51:   72   68:  125
           5       1:   54    1:   50   64:  125
           6       1:   54   84:  105   60:   63
           7       1:   54  117:  138    1:   59
           8       1:   54  139:  149    1:   63
           9       1:   54   51:   72    1:   59
          10       1:   54  139:  149   64:  125
          11       1:   54   84:  105   68:  125
          12       1:   54   51:   72   60:   63
          13       1:   54  150:  320    1:   58
          14       1:   54  117:  138   68:  125
          15       1:   54  117:  138   60:   63
          16       1:   54  150:  320   64:   67
          17       1:   54  150:  320   68:  125
          18       1:   54  150:  320   59:   63
          19       1:   54   73:   83   64:  125
          20       1:   54  117:  138   64:   67
          21       1:   54   84:  105    1:   59
          22       1:   54  106:  116    1:   63
          23       1:   54  106:  116   64:  125
          24       1:   54   84:  105   64:   67
New grid distribution:   3
           1       1:   54  120:  146   72:  125
           2       1:   54   65:   78    1:   63
           3       1:   54   37:   64   56:   63
           4       1:   54    1:   37   64:  125
           5       1:   54    1:   36    1:   63
           6       1:   54   79:  105   56:   63
           7       1:   54   79:  105    1:   55
           8       1:   54  147:  160    1:   63
           9       1:   54   37:   64    1:   55
          10       1:   54  106:  119    1:   63
          11       1:   54   79:  105   72:  125
          12       1:   54   38:   64   64:   71
          13       1:   54  161:  320    1:   55
          14       1:   54   38:   64   72:  125
          15       1:   54  106:  119   64:  125
          16       1:   54  120:  146   56:   63
          17       1:   54  161:  320   71:  125
          18       1:   54  161:  320   56:   63
          19       1:   54   65:   78   64:  125
          20       1:   54  120:  146   64:   71
          21       1:   54  120:  146    1:   55
          22       1:   54  161:  320   64:   70
          23       1:   54  147:  160   64:  125
          24       1:   54   79:  105   64:   71
Setting up quadratic distribution...
ExtMesh (bp) on 0 =   118 x   118 x   131 =     1824044
PhiOnMesh: Number of (b)points on node 0 =               170100
PhiOnMesh: nlist on node 0 =               781412

stepf: Fermi-Dirac step function

siesta: Program's energy decomposition (eV):
siesta: Ebs     =     -3422.664152
siesta: Eions   =     18041.771100
siesta: Ena     =      3776.172832
siesta: Ekin    =      8028.197497
siesta: Enl     =     -1055.306348
siesta: Eso     =         0.000000
siesta: Eldau   =         0.000000
siesta: DEna    =      -309.755047
siesta: DUscf   =        30.360638
siesta: DUext   =         0.000000
siesta: Enegf   =         0.000000
siesta: Exc     =     -3412.515751
siesta: eta*DQ  =         0.000000
siesta: Emadel  =         0.000000
siesta: Emeta   =         0.000000
siesta: Emolmec =         0.000000
siesta: Ekinion =         0.000000
siesta: Eharris =    -10983.179857
siesta: Etot    =    -10984.617280
siesta: FreeEng =    -10984.633315

        iscf     Eharris(eV)        E_KS(eV)     FreeEng(eV)     dDmax    Ef(eV) dHmax(eV)
   scf:    1   -10983.179857   -10984.617280   -10984.633315  0.967985 -5.442640  6.194570
timer: Routine,Calls,Time,% = IterSCF        1      21.660  84.91
   scf:    2   -10987.624100   -10986.332584   -10986.351878  0.014059 -5.107257  5.290807
   scf:    3   -10987.867565   -10987.297174   -10987.315185  0.015637 -4.945964  4.157257
   scf:    4   -10990.914655   -10989.376846   -10989.393676  0.027663 -4.186405  1.920528
   scf:    5   -10990.223055   -10989.894756   -10989.912299  0.022667 -3.717175  0.790223
   scf:    6   -10989.909906   -10989.945151   -10989.962197  0.008438 -3.743003  0.737390
   scf:    7   -10989.875875   -10989.957845   -10989.975302  0.010148 -3.715572  0.665318
   scf:    8   -10989.970342   -10989.991796   -10990.007923  0.008434 -3.732967  0.364483
   scf:    9   -10989.986242   -10989.996241   -10990.012176  0.004476 -3.727389  0.237853
   scf:   10   -10990.003971   -10990.001326   -10990.016449  0.003545 -3.731601  0.063200
   scf:   11   -10990.003386   -10990.002340   -10990.017070  0.001277 -3.732946  0.053352
   scf:   12   -10990.008543   -10990.005283   -10990.018662  0.003761 -3.736473  0.037929
   scf:   13   -10990.011439   -10990.008207   -10990.019973  0.003790 -3.737219  0.037467
   scf:   14   -10990.012273   -10990.010172   -10990.020720  0.002504 -3.737054  0.032012
   scf:   15   -10990.013431   -10990.011757   -10990.021254  0.002092 -3.736275  0.034533
   scf:   16   -10990.014740   -10990.013203   -10990.021682  0.001916 -3.735907  0.025580
   scf:   17   -10990.015697   -10990.014413   -10990.021984  0.001710 -3.735413  0.015891
   scf:   18   -10990.015863   -10990.015121   -10990.022126  0.001084 -3.735264  0.010674
   scf:   19   -10990.016245   -10990.015670   -10990.022206  0.000915 -3.734789  0.005528
   scf:   20   -10990.016113   -10990.015886   -10990.022230  0.000336 -3.734498  0.004776
   scf:   21   -10990.016376   -10990.016128   -10990.022246  0.000441 -3.734208  0.002165
   scf:   22   -10990.016315   -10990.016221   -10990.022251  0.000151 -3.734346  0.001303
   scf:   23   -10990.016168   -10990.016194   -10990.022250  0.000061 -3.734406  0.001175
   scf:   24   -10990.016359   -10990.016277   -10990.022255  0.000126 -3.734420  0.001004
   scf:   25   -10990.016313   -10990.016294   -10990.022254  0.000030 -3.734416  0.000817
   scf:   26   -10990.016353   -10990.016324   -10990.022255  0.000050 -3.734399  0.000486
   scf:   27   -10990.016377   -10990.016351   -10990.022256  0.000039 -3.734365  0.000395
   scf:   28   -10990.016386   -10990.016368   -10990.022256  0.000031 -3.734343  0.000282
   scf:   29   -10990.016376   -10990.016372   -10990.022256  0.000014 -3.734336  0.000191
   scf:   30   -10990.016374   -10990.016373   -10990.022256  0.000005 -3.734340  0.000140

SCF Convergence by DM+H criterion
max |DM_out - DM_in|         :     0.0000052202
max |H_out - H_in|      (eV) :     0.0001404733
SCF cycle converged after 30 iterations

Using DM_out to compute the final energy and forces
No. of atoms with KB's overlaping orbs in proc 0. Max # of overlaps:      50     217

siesta: E_KS(eV) =           -10990.0164

siesta: E_KS - E_eggbox =    -10990.0164

siesta: Total spin polarization (Qup-Qdown) =    0.000132

siesta: Atomic forces (eV/Ang):
----------------------------------------
   Tot    0.007822    0.004049   -0.000000
----------------------------------------
   Max    5.443464
   Res    1.138911    sqrt( Sum f_i^2 / 3N )
----------------------------------------
   Max    5.443464    constrained

Stress-tensor-Voigt (kbar):        1.78        2.73        0.01       -3.98       -0.00       -0.00
(Free)E + p*V (eV/cell)   -10998.3523
Target enthalpy (eV/cell)   -10990.0223
 
mulliken: Atomic and Orbital Populations:

mulliken: Spin UP 

Species: H.ca                
Atom  Qatom  Qorb
               1s      1s      1Ppy    1Ppz    1Ppx    
   1  0.622   0.404   0.162   0.025   0.017   0.014
   3  0.626   0.423   0.150   0.024   0.017   0.012
   9  0.625   0.423   0.148   0.024   0.018   0.013
  32  0.623   0.405   0.159   0.017   0.019   0.022
  47  0.623   0.406   0.159   0.017   0.018   0.022
  70  0.625   0.420   0.148   0.024   0.020   0.013
  76  0.624   0.417   0.149   0.024   0.021   0.012
  78  0.621   0.400   0.161   0.025   0.022   0.014

Species: C.ca2               
Atom  Qatom  Qorb
               2s      2s      2py     2pz     2px     2py     2pz     2px     
               2Pdxy   2Pdyz   2Pdz2   2Pdxz   2Pdx2-y2
   2  1.991   0.238   0.249   0.223   0.382   0.223   0.256   0.089   0.253
              0.023   0.015   0.002   0.014   0.026
   4  1.844   0.184   0.272   0.081   0.360   0.250   0.343   0.058   0.234
              0.017   0.005   0.001   0.016   0.021
   5  1.978   0.235   0.250   0.215   0.377   0.215   0.257   0.089   0.261
              0.024   0.015   0.002   0.014   0.025
   6  1.983   0.271   0.235   0.233   0.391   0.257   0.239   0.064   0.219
              0.025   0.015   0.002   0.013   0.021
   7  2.004   0.246   0.247   0.228   0.385   0.232   0.248   0.083   0.255
              0.024   0.015   0.001   0.016   0.024
   8  2.002   0.243   0.246   0.231   0.384   0.226   0.256   0.088   0.248
              0.023   0.016   0.001   0.015   0.025
  10  1.837   0.185   0.273   0.080   0.356   0.252   0.343   0.054   0.234
              0.017   0.004   0.001   0.016   0.021
  11  1.978   0.235   0.250   0.213   0.377   0.210   0.257   0.089   0.266
              0.024   0.014   0.002   0.014   0.025
  12  1.991   0.250   0.244   0.225   0.384   0.227   0.252   0.079   0.251
              0.024   0.015   0.002   0.016   0.024
  13  2.006   0.247   0.245   0.230   0.390   0.230   0.251   0.082   0.251
              0.024   0.015   0.002   0.016   0.024
  14  1.991   0.247   0.244   0.224   0.383   0.235   0.250   0.081   0.248
              0.024   0.016   0.002   0.016   0.023
  15  2.002   0.248   0.245   0.230   0.389   0.229   0.250   0.081   0.251
              0.023   0.015   0.002   0.015   0.023
  16  1.996   0.267   0.236   0.239   0.395   0.253   0.238   0.069   0.222
              0.025   0.016   0.001   0.013   0.021
  17  2.002   0.245   0.246   0.226   0.385   0.232   0.251   0.083   0.254
              0.024   0.016   0.001   0.016   0.024
  18  2.002   0.244   0.245   0.231   0.384   0.227   0.255   0.087   0.247
              0.023   0.017   0.001   0.015   0.025
  19  1.858   0.178   0.277   0.083   0.372   0.240   0.343   0.064   0.241
              0.017   0.004   0.001   0.016   0.021
  20  1.898   0.173   0.281   0.168   0.396   0.151   0.292   0.073   0.305
              0.024   0.009   0.001   0.009   0.015
  21  1.984   0.250   0.243   0.225   0.378   0.227   0.253   0.078   0.251
              0.024   0.015   0.002   0.016   0.024
  22  2.006   0.246   0.246   0.226   0.391   0.233   0.251   0.084   0.251
              0.023   0.015   0.002   0.014   0.024
  23  1.984   0.248   0.244   0.229   0.377   0.229   0.250   0.077   0.250
              0.024   0.016   0.002   0.016   0.023
  24  2.003   0.249   0.245   0.231   0.390   0.229   0.249   0.081   0.251
              0.023   0.015   0.002   0.015   0.024
  25  1.995   0.249   0.244   0.230   0.385   0.228   0.249   0.080   0.250
              0.023   0.016   0.002   0.016   0.024
  26  2.003   0.248   0.245   0.229   0.390   0.230   0.251   0.081   0.250
              0.024   0.016   0.002   0.016   0.023
  27  1.998   0.246   0.245   0.224   0.386   0.234   0.250   0.083   0.248
              0.024   0.016   0.002   0.016   0.023
  28  2.001   0.248   0.245   0.229   0.389   0.229   0.250   0.081   0.250
              0.023   0.015   0.002   0.016   0.023
  29  2.000   0.266   0.236   0.239   0.398   0.253   0.238   0.070   0.222
              0.025   0.016   0.001   0.014   0.021
  30  2.002   0.245   0.246   0.225   0.386   0.232   0.251   0.083   0.254
              0.024   0.016   0.001   0.016   0.024
  31  2.004   0.243   0.246   0.231   0.386   0.227   0.255   0.088   0.247
              0.023   0.017   0.001   0.015   0.025
  33  1.945   0.245   0.243   0.214   0.356   0.227   0.259   0.075   0.244
              0.023   0.016   0.002   0.016   0.025
  34  1.986   0.247   0.245   0.225   0.375   0.233   0.250   0.078   0.252
              0.024   0.016   0.001   0.016   0.024
  35  2.008   0.267   0.237   0.240   0.403   0.255   0.238   0.071   0.222
              0.025   0.015   0.001   0.013   0.021
  36  1.996   0.249   0.244   0.229   0.385   0.229   0.250   0.080   0.250
              0.023   0.016   0.002   0.016   0.023
  37  2.003   0.246   0.245   0.224   0.390   0.235   0.251   0.084   0.248
              0.024   0.016   0.002   0.015   0.023
  38  1.996   0.248   0.245   0.229   0.385   0.230   0.251   0.080   0.249
              0.024   0.016   0.002   0.016   0.023
  39  2.002   0.249   0.245   0.230   0.389   0.229   0.249   0.081   0.251
              0.023   0.015   0.002   0.015   0.024
  40  1.997   0.249   0.244   0.230   0.386   0.228   0.249   0.080   0.250
              0.023   0.016   0.002   0.016   0.024
  41  2.004   0.247   0.245   0.229   0.390   0.230   0.251   0.082   0.250
              0.024   0.016   0.002   0.016   0.023
  42  1.998   0.246   0.245   0.224   0.386   0.234   0.251   0.083   0.248
              0.024   0.016   0.002   0.016   0.023
  43  2.003   0.248   0.245   0.229   0.390   0.229   0.250   0.082   0.250
              0.023   0.015   0.002   0.016   0.023
  44  2.000   0.268   0.236   0.239   0.397   0.255   0.237   0.069   0.221
              0.025   0.016   0.001   0.014   0.021
  45  2.014   0.246   0.247   0.225   0.394   0.233   0.251   0.084   0.253
              0.024   0.015   0.001   0.016   0.024
  46  2.022   0.244   0.248   0.215   0.411   0.228   0.261   0.090   0.245
              0.023   0.016   0.002   0.015   0.025
  48  1.994   0.244   0.245   0.231   0.379   0.226   0.255   0.086   0.247
              0.023   0.017   0.001   0.015   0.025
  49  1.996   0.245   0.246   0.225   0.381   0.231   0.250   0.082   0.254
              0.024   0.016   0.001   0.016   0.024
  50  2.006   0.266   0.237   0.240   0.402   0.253   0.238   0.071   0.223
              0.025   0.015   0.001   0.013   0.021
  51  1.997   0.248   0.245   0.228   0.386   0.229   0.250   0.081   0.250
              0.023   0.016   0.002   0.016   0.023
  52  2.002   0.246   0.245   0.224   0.390   0.234   0.251   0.084   0.249
              0.024   0.016   0.002   0.015   0.023
  53  1.998   0.248   0.245   0.229   0.386   0.230   0.250   0.080   0.249
              0.024   0.016   0.002   0.016   0.023
  54  2.004   0.249   0.245   0.230   0.391   0.229   0.249   0.082   0.250
              0.023   0.015   0.002   0.015   0.024
  55  1.997   0.249   0.244   0.231   0.386   0.228   0.248   0.080   0.250
              0.023   0.016   0.002   0.017   0.024
  56  2.016   0.247   0.246   0.229   0.399   0.230   0.251   0.084   0.250
              0.024   0.016   0.002   0.016   0.023
  57  1.997   0.246   0.244   0.225   0.384   0.232   0.250   0.082   0.250
              0.023   0.017   0.002   0.017   0.024
  58  2.010   0.249   0.245   0.226   0.396   0.228   0.253   0.083   0.251
              0.024   0.014   0.002   0.016   0.024
  59  1.883   0.173   0.279   0.167   0.384   0.150   0.291   0.071   0.304
              0.024   0.012   0.001   0.011   0.015
  60  1.919   0.177   0.280   0.084   0.416   0.241   0.344   0.075   0.242
              0.017   0.004   0.001   0.015   0.021
  61  1.996   0.244   0.245   0.231   0.380   0.227   0.255   0.086   0.247
              0.023   0.017   0.001   0.015   0.025
  62  1.997   0.245   0.246   0.225   0.382   0.232   0.250   0.082   0.254
              0.024   0.016   0.001   0.016   0.024
  63  2.010   0.266   0.237   0.240   0.405   0.253   0.238   0.072   0.223
              0.025   0.015   0.001   0.013   0.021
  64  1.997   0.248   0.244   0.229   0.385   0.229   0.249   0.080   0.250
              0.023   0.016   0.002   0.017   0.023
  65  2.009   0.247   0.245   0.225   0.395   0.235   0.251   0.085   0.248
              0.024   0.016   0.002   0.015   0.023
  66  1.996   0.247   0.245   0.229   0.383   0.229   0.250   0.080   0.251
              0.023   0.016   0.002   0.016   0.024
  67  2.004   0.250   0.244   0.226   0.393   0.227   0.252   0.082   0.252
              0.024   0.014   0.002   0.015   0.024
  68  1.965   0.235   0.248   0.213   0.367   0.209   0.256   0.086   0.264
              0.024   0.015   0.002   0.021   0.025
  69  1.971   0.184   0.280   0.082   0.454   0.254   0.346   0.077   0.236
              0.017   0.004   0.001   0.016   0.021
  71  1.996   0.243   0.245   0.230   0.379   0.226   0.256   0.086   0.248
              0.023   0.017   0.001   0.016   0.025
  72  1.996   0.246   0.246   0.228   0.379   0.231   0.248   0.082   0.255
              0.024   0.016   0.001   0.017   0.024
  73  2.022   0.270   0.237   0.233   0.419   0.258   0.240   0.070   0.220
              0.025   0.015   0.002   0.013   0.021
  74  1.966   0.235   0.248   0.215   0.366   0.214   0.255   0.086   0.259
              0.024   0.016   0.002   0.022   0.024
  75  1.970   0.183   0.278   0.083   0.453   0.252   0.346   0.079   0.236
              0.017   0.005   0.001   0.015   0.021
  77  1.980   0.239   0.246   0.222   0.371   0.222   0.254   0.086   0.251
              0.023   0.019   0.002   0.020   0.026

mulliken: Qtot =      144.000

mulliken: Spin DOWN 

Species: H.ca                
Atom  Qatom  Qorb
               1s      1s      1Ppy    1Ppz    1Ppx    
   1  0.621   0.400   0.161   0.025   0.022   0.014
   3  0.624   0.417   0.149   0.024   0.021   0.012
   9  0.625   0.420   0.148   0.024   0.020   0.013
  32  0.623   0.406   0.159   0.017   0.018   0.022
  47  0.623   0.405   0.159   0.017   0.019   0.022
  70  0.625   0.423   0.148   0.024   0.018   0.013
  76  0.626   0.423   0.150   0.024   0.017   0.012
  78  0.622   0.405   0.162   0.025   0.017   0.014

Species: C.ca2               
Atom  Qatom  Qorb
               2s      2s      2py     2pz     2px     2py     2pz     2px     
               2Pdxy   2Pdyz   2Pdz2   2Pdxz   2Pdx2-y2
   2  1.980   0.239   0.246   0.222   0.371   0.222   0.254   0.086   0.251
              0.023   0.019   0.002   0.020   0.026
   4  1.970   0.183   0.278   0.083   0.453   0.252   0.346   0.079   0.236
              0.017   0.005   0.001   0.015   0.021
   5  1.966   0.235   0.248   0.215   0.366   0.214   0.255   0.086   0.258
              0.024   0.016   0.002   0.022   0.024
   6  2.022   0.270   0.237   0.233   0.419   0.258   0.240   0.070   0.220
              0.025   0.015   0.002   0.013   0.021
   7  1.995   0.246   0.246   0.228   0.379   0.231   0.248   0.082   0.255
              0.024   0.016   0.001   0.017   0.024
   8  1.996   0.243   0.245   0.230   0.379   0.226   0.256   0.086   0.248
              0.023   0.017   0.001   0.016   0.025
  10  1.971   0.184   0.280   0.082   0.454   0.254   0.346   0.077   0.236
              0.017   0.004   0.001   0.016   0.021
  11  1.965   0.235   0.248   0.213   0.367   0.209   0.256   0.086   0.264
              0.024   0.015   0.002   0.021   0.025
  12  2.004   0.250   0.244   0.226   0.393   0.227   0.252   0.082   0.252
              0.024   0.014   0.002   0.015   0.024
  13  1.996   0.247   0.245   0.229   0.383   0.229   0.250   0.080   0.251
              0.024   0.016   0.002   0.016   0.024
  14  2.009   0.247   0.245   0.225   0.395   0.235   0.251   0.085   0.248
              0.024   0.016   0.002   0.015   0.023
  15  1.997   0.249   0.244   0.230   0.385   0.228   0.249   0.080   0.250
              0.023   0.016   0.002   0.017   0.023
  16  2.010   0.266   0.237   0.240   0.405   0.254   0.238   0.072   0.223
              0.025   0.015   0.001   0.013   0.021
  17  1.997   0.245   0.246   0.225   0.382   0.232   0.251   0.082   0.254
              0.024   0.016   0.001   0.016   0.024
  18  1.996   0.244   0.245   0.231   0.380   0.226   0.255   0.086   0.247
              0.023   0.017   0.001   0.015   0.025
  19  1.919   0.177   0.280   0.084   0.416   0.241   0.345   0.075   0.242
              0.017   0.004   0.001   0.015   0.021
  20  1.883   0.173   0.279   0.167   0.384   0.150   0.291   0.071   0.304
              0.024   0.012   0.001   0.011   0.015
  21  2.010   0.249   0.245   0.226   0.396   0.228   0.253   0.083   0.251
              0.024   0.014   0.002   0.016   0.024
  22  1.997   0.247   0.244   0.225   0.384   0.232   0.250   0.082   0.250
              0.023   0.017   0.002   0.017   0.024
  23  2.016   0.247   0.246   0.229   0.399   0.229   0.251   0.084   0.250
              0.024   0.016   0.002   0.016   0.023
  24  1.997   0.249   0.244   0.231   0.386   0.228   0.248   0.080   0.250
              0.023   0.016   0.002   0.017   0.024
  25  2.004   0.249   0.245   0.230   0.391   0.229   0.249   0.082   0.250
              0.023   0.015   0.002   0.015   0.024
  26  1.997   0.248   0.245   0.229   0.386   0.230   0.250   0.080   0.249
              0.024   0.016   0.002   0.016   0.023
  27  2.003   0.246   0.245   0.224   0.390   0.234   0.251   0.084   0.248
              0.024   0.016   0.002   0.015   0.023
  28  1.997   0.248   0.245   0.229   0.386   0.229   0.250   0.081   0.250
              0.023   0.016   0.002   0.016   0.023
  29  2.006   0.266   0.237   0.240   0.402   0.253   0.238   0.071   0.223
              0.025   0.015   0.001   0.013   0.021
  30  1.996   0.245   0.246   0.225   0.381   0.231   0.250   0.082   0.254
              0.024   0.016   0.001   0.016   0.024
  31  1.994   0.244   0.245   0.231   0.379   0.227   0.255   0.086   0.247
              0.023   0.017   0.001   0.015   0.025
  33  2.022   0.244   0.248   0.215   0.411   0.228   0.261   0.090   0.246
              0.023   0.016   0.002   0.015   0.025
  34  2.014   0.246   0.247   0.226   0.394   0.233   0.250   0.084   0.253
              0.024   0.015   0.001   0.016   0.024
  35  2.000   0.267   0.236   0.239   0.397   0.255   0.237   0.069   0.221
              0.025   0.016   0.001   0.014   0.021
  36  2.002   0.248   0.245   0.229   0.390   0.229   0.250   0.082   0.251
              0.023   0.015   0.002   0.016   0.023
  37  1.998   0.246   0.245   0.224   0.386   0.235   0.251   0.083   0.248
              0.024   0.016   0.002   0.016   0.023
  38  2.004   0.247   0.245   0.229   0.390   0.230   0.251   0.082   0.250
              0.024   0.016   0.002   0.016   0.023
  39  1.997   0.249   0.244   0.230   0.386   0.228   0.249   0.080   0.250
              0.023   0.016   0.002   0.016   0.024
  40  2.001   0.249   0.245   0.230   0.389   0.229   0.249   0.081   0.251
              0.023   0.015   0.002   0.015   0.024
  41  1.996   0.248   0.245   0.229   0.385   0.230   0.251   0.080   0.249
              0.024   0.016   0.002   0.016   0.023
  42  2.003   0.246   0.245   0.224   0.390   0.235   0.251   0.084   0.248
              0.024   0.016   0.002   0.015   0.023
  43  1.996   0.249   0.244   0.229   0.385   0.229   0.250   0.080   0.250
              0.023   0.016   0.002   0.016   0.023
  44  2.008   0.267   0.236   0.240   0.403   0.256   0.238   0.071   0.222
              0.025   0.015   0.001   0.013   0.021
  45  1.986   0.247   0.245   0.225   0.375   0.233   0.250   0.078   0.252
              0.024   0.016   0.001   0.016   0.024
  46  1.945   0.245   0.243   0.214   0.356   0.227   0.259   0.075   0.244
              0.023   0.016   0.002   0.016   0.025
  48  2.004   0.243   0.246   0.231   0.386   0.227   0.255   0.088   0.247
              0.023   0.017   0.001   0.015   0.025
  49  2.002   0.245   0.246   0.226   0.386   0.231   0.251   0.083   0.254
              0.024   0.016   0.001   0.016   0.024
  50  2.000   0.266   0.237   0.239   0.398   0.253   0.238   0.070   0.222
              0.025   0.016   0.001   0.014   0.021
  51  2.001   0.248   0.245   0.229   0.389   0.229   0.250   0.081   0.250
              0.023   0.015   0.002   0.016   0.023
  52  1.998   0.246   0.245   0.224   0.386   0.234   0.250   0.083   0.248
              0.024   0.016   0.002   0.016   0.023
  53  2.003   0.248   0.245   0.229   0.390   0.230   0.251   0.081   0.250
              0.024   0.016   0.002   0.016   0.023
  54  1.995   0.249   0.244   0.230   0.385   0.229   0.249   0.080   0.250
              0.023   0.016   0.002   0.016   0.024
  55  2.003   0.249   0.245   0.231   0.390   0.229   0.249   0.081   0.251
              0.023   0.015   0.002   0.015   0.024
  56  1.984   0.248   0.244   0.229   0.377   0.229   0.250   0.077   0.250
              0.024   0.016   0.002   0.016   0.023
  57  2.006   0.246   0.246   0.226   0.392   0.233   0.251   0.084   0.251
              0.023   0.015   0.002   0.014   0.024
  58  1.984   0.250   0.243   0.225   0.378   0.227   0.253   0.078   0.251
              0.024   0.015   0.002   0.016   0.024
  59  1.898   0.173   0.281   0.168   0.396   0.151   0.292   0.073   0.305
              0.024   0.009   0.001   0.009   0.015
  60  1.858   0.178   0.277   0.083   0.372   0.240   0.343   0.064   0.241
              0.017   0.004   0.001   0.016   0.021
  61  2.002   0.244   0.245   0.231   0.384   0.227   0.255   0.087   0.247
              0.023   0.017   0.001   0.015   0.025
  62  2.002   0.245   0.246   0.226   0.385   0.232   0.251   0.083   0.254
              0.024   0.016   0.001   0.016   0.024
  63  1.996   0.267   0.236   0.239   0.395   0.253   0.238   0.069   0.222
              0.025   0.016   0.001   0.013   0.021
  64  2.002   0.248   0.245   0.230   0.389   0.229   0.250   0.081   0.251
              0.023   0.015   0.002   0.015   0.023
  65  1.991   0.248   0.244   0.224   0.383   0.235   0.250   0.081   0.247
              0.024   0.016   0.002   0.016   0.023
  66  2.006   0.247   0.246   0.230   0.390   0.230   0.251   0.082   0.251
              0.024   0.015   0.002   0.016   0.024
  67  1.991   0.250   0.244   0.225   0.384   0.226   0.252   0.079   0.251
              0.024   0.015   0.002   0.016   0.024
  68  1.978   0.235   0.250   0.214   0.377   0.210   0.257   0.089   0.266
              0.024   0.014   0.002   0.014   0.025
  69  1.837   0.185   0.273   0.080   0.356   0.252   0.343   0.054   0.234
              0.017   0.004   0.001   0.016   0.021
  71  2.002   0.243   0.246   0.231   0.384   0.226   0.256   0.088   0.248
              0.023   0.016   0.001   0.015   0.025
  72  2.004   0.246   0.247   0.228   0.385   0.232   0.248   0.083   0.255
              0.024   0.015   0.001   0.016   0.024
  73  1.983   0.271   0.235   0.232   0.391   0.257   0.239   0.064   0.219
              0.025   0.015   0.002   0.013   0.021
  74  1.978   0.234   0.250   0.215   0.377   0.215   0.257   0.089   0.261
              0.024   0.015   0.002   0.014   0.025
  75  1.843   0.184   0.272   0.081   0.360   0.250   0.343   0.058   0.234
              0.017   0.005   0.001   0.016   0.021
  77  1.991   0.238   0.249   0.223   0.382   0.223   0.256   0.089   0.253
              0.023   0.015   0.002   0.014   0.026

mulliken: Qtot =      144.000

                     ====================================
                        Begin CG opt. move =      1
                     ====================================

superc: Internal auxiliary supercell:     3 x     1 x     1  =       3
superc: Number of atoms, orbitals, and projectors:    234   2850   3576

outcell: Unit cell vectors (Ang):
        8.870000    0.000000    0.000000
        0.000000   50.000000    0.000000
        0.000000    0.000000   20.000000

outcell: Cell vector modules (Ang)   :    8.870000   50.000000   20.000000
outcell: Cell angles (23,13,12) (deg):     90.0000     90.0000     90.0000
outcell: Cell volume (Ang**3)        :   8870.0000
<dSpData1D:S at geom step 1
  <sparsity:sparsity for geom step 1
    nrows_g=950 nrows=48 sparsity=.0299 nnzs=27025, refcount: 7>
  <dData1D:(new from dSpData1D) n=27025, refcount: 1>
refcount: 1>
new_DM -- step:     2
Re-using DM from previous geometries...
Number of DMs in history: 1
 DM extrapolation coefficients: 
1   1.00000
New DM after history re-use:
<dSpData2D:SpM extrapolated using coords
  <sparsity:sparsity for geom step 1
    nrows_g=950 nrows=48 sparsity=.0299 nnzs=27025, refcount: 8>
  <dData2D:(temp array for extrapolation) n=27025 m=2, refcount: 1>
refcount: 1>
No. of atoms with KB's overlaping orbs in proc 0. Max # of overlaps:      50     217
New grid distribution:   1
           1       1:   54    1:   80    1:   21
           2       1:   54    1:   80   22:   42
           3       1:   54    1:   80   43:   63
           4       1:   54    1:   80   64:   84
           5       1:   54    1:   80   85:  105
           6       1:   54    1:   80  106:  125
           7       1:   54   81:  160    1:   21
           8       1:   54   81:  160   22:   42
           9       1:   54   81:  160   43:   63
          10       1:   54   81:  160   64:   84
          11       1:   54   81:  160   85:  105
          12       1:   54   81:  160  106:  125
          13       1:   54  161:  240    1:   21
          14       1:   54  161:  240   22:   42
          15       1:   54  161:  240   43:   63
          16       1:   54  161:  240   64:   84
          17       1:   54  161:  240   85:  105
          18       1:   54  161:  240  106:  125
          19       1:   54  241:  320    1:   21
          20       1:   54  241:  320   22:   42
          21       1:   54  241:  320   43:   63
          22       1:   54  241:  320   64:   84
          23       1:   54  241:  320   85:  105
          24       1:   54  241:  320  106:  125

InitMesh: MESH =   108 x   640 x   250 =    17280000
InitMesh: (bp) =    54 x   320 x   125 =     2160000
InitMesh: Mesh cutoff (required, used) =   400.000   409.734 Ry
ExtMesh (bp) on 0 =   118 x   148 x    89 =     1554296
New grid distribution:   2
           1       1:   54    1:   50    1:   63
           2       1:   54   73:   83    1:   63
           3       1:   54   51:   72   64:   67
           4       1:   54   51:   72   68:  125
           5       1:   54    1:   50   64:  125
           6       1:   54   84:  105   60:   63
           7       1:   54  117:  138    1:   59
           8       1:   54  139:  149    1:   63
           9       1:   54   51:   72    1:   59
          10       1:   54  139:  149   64:  125
          11       1:   54   84:  105   68:  125
          12       1:   54   51:   72   60:   63
          13       1:   54  150:  320    1:   58
          14       1:   54  117:  138   68:  125
          15       1:   54  117:  138   60:   63
          16       1:   54  150:  320   64:   67
          17       1:   54  150:  320   68:  125
          18       1:   54  150:  320   59:   63
          19       1:   54   73:   83   64:  125
          20       1:   54  117:  138   64:   67
          21       1:   54   84:  105    1:   59
          22       1:   54  106:  116    1:   63
          23       1:   54  106:  116   64:  125
          24       1:   54   84:  105   64:   67
New grid distribution:   3
           1       1:   54  120:  146   72:  125
           2       1:   54   65:   78    1:   63
           3       1:   54   37:   64   56:   63
           4       1:   54    1:   37   64:  125
           5       1:   54    1:   36    1:   63
           6       1:   54   79:  105   56:   63
           7       1:   54   79:  105    1:   55
           8       1:   54  147:  160    1:   63
           9       1:   54   37:   64    1:   55
          10       1:   54  106:  119    1:   63
          11       1:   54   79:  105   72:  125
          12       1:   54   38:   64   64:   71
          13       1:   54  161:  320    1:   55
          14       1:   54   38:   64   72:  125
          15       1:   54  106:  119   64:  125
          16       1:   54  120:  146   56:   63
          17       1:   54  161:  320   71:  125
          18       1:   54  161:  320   56:   63
          19       1:   54   65:   78   64:  125
          20       1:   54  120:  146   64:   71
          21       1:   54  120:  146    1:   55
          22       1:   54  161:  320   64:   70
          23       1:   54  147:  160   64:  125
          24       1:   54   79:  105   64:   71
Setting up quadratic distribution...
ExtMesh (bp) on 0 =   118 x   118 x   131 =     1824044
PhiOnMesh: Number of (b)points on node 0 =               170100
PhiOnMesh: nlist on node 0 =               780957

        iscf     Eharris(eV)        E_KS(eV)     FreeEng(eV)     dDmax    Ef(eV) dHmax(eV)
   scf:    1   -10991.776575   -10991.387149   -10991.392968  0.007172 -3.743078  0.667565
   scf:    2   -10989.716822   -10990.943294   -10990.948327  0.011581 -3.731256  1.843439
   scf:    3   -10991.630075   -10991.490786   -10991.496245  0.008280 -3.740326  0.065097
   scf:    4   -10991.494357   -10991.492783   -10991.498277  0.000331 -3.740447  0.037271
   scf:    5   -10991.494299   -10991.493691   -10991.499236  0.000270 -3.740813  0.018076
   scf:    6   -10991.494094   -10991.493950   -10991.499593  0.000214 -3.741903  0.008184
   scf:    7   -10991.493892   -10991.493924   -10991.499621  0.000113 -3.742126  0.006365
   scf:    8   -10991.493875   -10991.493900   -10991.499626  0.000065 -3.742239  0.004770
   scf:    9   -10991.493817   -10991.493859   -10991.499633  0.000085 -3.742374  0.002510
   scf:   10   -10991.493800   -10991.493830   -10991.499635  0.000051 -3.742439  0.002196
   scf:   11   -10991.493762   -10991.493796   -10991.499637  0.000054 -3.742490  0.001704
   scf:   12   -10991.493707   -10991.493751   -10991.499637  0.000067 -3.742548  0.001210
   scf:   13   -10991.493643   -10991.493697   -10991.499639  0.000080 -3.742598  0.000713
   scf:   14   -10991.493656   -10991.493676   -10991.499639  0.000029 -3.742615  0.000491
   scf:   15   -10991.493587   -10991.493631   -10991.499640  0.000063 -3.742647  0.000263
   scf:   16   -10991.493614   -10991.493623   -10991.499640  0.000011 -3.742654  0.000225
   scf:   17   -10991.493599   -10991.493611   -10991.499640  0.000015 -3.742663  0.000153
   scf:   18   -10991.493597   -10991.493604   -10991.499640  0.000012 -3.742667  0.000080
   scf:   19   -10991.493598   -10991.493601   -10991.499640  0.000004 -3.742669  0.000059

SCF Convergence by DM+H criterion
max |DM_out - DM_in|         :     0.0000040236
max |H_out - H_in|      (eV) :     0.0000590278
SCF cycle converged after 19 iterations

Using DM_out to compute the final energy and forces
No. of atoms with KB's overlaping orbs in proc 0. Max # of overlaps:      50     217

siesta: E_KS(eV) =           -10991.4936

siesta: Total spin polarization (Qup-Qdown) =   -0.000014

siesta: Atomic forces (eV/Ang):
----------------------------------------
   Tot    0.001785    0.013346   -0.000000
----------------------------------------
   Max    3.305577
   Res    0.725210    sqrt( Sum f_i^2 / 3N )
----------------------------------------
   Max    3.305577    constrained

Stress-tensor-Voigt (kbar):        1.76        4.50        0.01       -4.37        0.00       -0.00
(Free)E + p*V (eV/cell)   -11003.0582
Target enthalpy (eV/cell)   -10991.4996
 
mulliken: Atomic and Orbital Populations:

mulliken: Spin UP 

Species: H.ca                
Atom  Qatom  Qorb
               1s      1s      1Ppy    1Ppz    1Ppx    
   1  0.622   0.405   0.162   0.025   0.017   0.014
   3  0.626   0.422   0.150   0.024   0.017   0.012
   9  0.625   0.423   0.148   0.024   0.018   0.013
  32  0.622   0.406   0.158   0.017   0.019   0.022
  47  0.623   0.407   0.158   0.017   0.018   0.022
  70  0.625   0.420   0.148   0.024   0.020   0.013
  76  0.624   0.417   0.149   0.024   0.021   0.012
  78  0.621   0.400   0.161   0.025   0.022   0.014

Species: C.ca2               
Atom  Qatom  Qorb
               2s      2s      2py     2pz     2px     2py     2pz     2px     
               2Pdxy   2Pdyz   2Pdz2   2Pdxz   2Pdx2-y2
   2  1.992   0.242   0.248   0.224   0.386   0.224   0.251   0.085   0.254
              0.023   0.014   0.002   0.014   0.025
   4  1.845   0.185   0.272   0.083   0.363   0.250   0.341   0.057   0.233
              0.017   0.005   0.001   0.016   0.021
   5  1.978   0.234   0.251   0.216   0.377   0.215   0.256   0.089   0.262
              0.024   0.015   0.002   0.014   0.025
   6  1.987   0.268   0.237   0.231   0.393   0.250   0.241   0.065   0.226
              0.024   0.015   0.002   0.014   0.022
   7  2.004   0.245   0.247   0.230   0.384   0.230   0.248   0.084   0.256
              0.024   0.015   0.001   0.016   0.024
   8  2.002   0.246   0.246   0.232   0.387   0.227   0.250   0.083   0.250
              0.023   0.016   0.001   0.016   0.024
  10  1.842   0.185   0.273   0.080   0.360   0.251   0.343   0.055   0.235
              0.017   0.004   0.001   0.016   0.021
  11  1.977   0.235   0.250   0.214   0.377   0.210   0.257   0.088   0.266
              0.024   0.014   0.002   0.014   0.025
  12  1.992   0.249   0.244   0.225   0.384   0.227   0.252   0.080   0.251
              0.024   0.015   0.002   0.016   0.024
  13  2.005   0.247   0.245   0.230   0.389   0.229   0.250   0.082   0.252
              0.023   0.015   0.002   0.016   0.024
  14  1.993   0.249   0.244   0.227   0.385   0.234   0.249   0.079   0.247
              0.024   0.016   0.002   0.015   0.023
  15  2.002   0.248   0.245   0.230   0.389   0.229   0.250   0.081   0.251
              0.023   0.015   0.002   0.015   0.023
  16  1.996   0.265   0.238   0.236   0.396   0.247   0.239   0.069   0.229
              0.024   0.015   0.002   0.014   0.022
  17  2.002   0.245   0.246   0.227   0.384   0.230   0.250   0.083   0.255
              0.024   0.016   0.001   0.016   0.024
  18  2.002   0.247   0.245   0.232   0.388   0.227   0.250   0.083   0.249
              0.023   0.016   0.001   0.016   0.024
  19  1.861   0.177   0.277   0.084   0.373   0.239   0.343   0.066   0.243
              0.018   0.004   0.001   0.016   0.021
  20  1.897   0.173   0.280   0.170   0.394   0.148   0.289   0.075   0.308
              0.024   0.009   0.001   0.009   0.015
  21  1.985   0.250   0.243   0.225   0.377   0.227   0.252   0.078   0.251
              0.024   0.015   0.002   0.016   0.024
  22  2.006   0.249   0.245   0.227   0.393   0.233   0.250   0.082   0.250
              0.023   0.015   0.002   0.014   0.024
  23  1.986   0.248   0.244   0.229   0.378   0.229   0.250   0.078   0.250
              0.023   0.016   0.002   0.016   0.024
  24  2.003   0.248   0.245   0.231   0.391   0.229   0.249   0.081   0.251
              0.023   0.015   0.002   0.015   0.024
  25  1.995   0.248   0.244   0.230   0.385   0.229   0.249   0.080   0.250
              0.023   0.016   0.002   0.016   0.024
  26  2.003   0.248   0.245   0.229   0.390   0.230   0.250   0.081   0.250
              0.023   0.016   0.002   0.016   0.023
  27  1.998   0.248   0.244   0.227   0.388   0.233   0.249   0.081   0.247
              0.024   0.016   0.002   0.016   0.023
  28  2.001   0.248   0.245   0.229   0.388   0.229   0.250   0.081   0.251
              0.023   0.015   0.002   0.016   0.023
  29  1.999   0.264   0.238   0.236   0.398   0.247   0.239   0.070   0.229
              0.024   0.015   0.002   0.014   0.022
  30  2.003   0.245   0.246   0.227   0.385   0.230   0.250   0.084   0.255
              0.024   0.016   0.001   0.016   0.024
  31  2.003   0.247   0.245   0.232   0.389   0.228   0.250   0.083   0.249
              0.023   0.016   0.001   0.016   0.024
  33  1.946   0.245   0.244   0.214   0.357   0.226   0.258   0.075   0.247
              0.023   0.016   0.002   0.016   0.024
  34  1.987   0.246   0.245   0.227   0.375   0.231   0.250   0.079   0.254
              0.024   0.016   0.001   0.016   0.024
  35  2.007   0.266   0.238   0.237   0.404   0.249   0.239   0.070   0.229
              0.024   0.015   0.001   0.014   0.022
  36  1.996   0.248   0.245   0.229   0.385   0.229   0.250   0.080   0.251
              0.023   0.016   0.002   0.016   0.023
  37  2.003   0.248   0.245   0.227   0.391   0.234   0.249   0.082   0.247
              0.024   0.016   0.002   0.015   0.023
  38  1.997   0.248   0.245   0.229   0.386   0.229   0.250   0.080   0.250
              0.023   0.016   0.002   0.016   0.023
  39  2.002   0.248   0.245   0.230   0.389   0.229   0.249   0.082   0.250
              0.023   0.015   0.002   0.016   0.024
  40  1.998   0.248   0.244   0.230   0.387   0.229   0.249   0.081   0.250
              0.023   0.016   0.002   0.016   0.023
  41  2.003   0.247   0.245   0.229   0.390   0.230   0.251   0.082   0.250
              0.024   0.016   0.002   0.016   0.023
  42  1.998   0.248   0.244   0.227   0.388   0.234   0.249   0.081   0.247
              0.024   0.016   0.002   0.016   0.023
  43  2.003   0.248   0.245   0.229   0.389   0.229   0.250   0.082   0.251
              0.023   0.015   0.002   0.016   0.023
  44  1.999   0.266   0.237   0.236   0.398   0.249   0.238   0.068   0.228
              0.024   0.015   0.002   0.015   0.022
  45  2.013   0.246   0.246   0.227   0.393   0.231   0.250   0.085   0.254
              0.024   0.015   0.001   0.016   0.024
  46  2.022   0.243   0.248   0.215   0.411   0.227   0.260   0.090   0.249
              0.023   0.015   0.002   0.016   0.024
  48  1.995   0.247   0.245   0.231   0.383   0.227   0.250   0.082   0.249
              0.023   0.016   0.002   0.016   0.024
  49  1.997   0.245   0.246   0.227   0.381   0.229   0.250   0.082   0.255
              0.024   0.016   0.001   0.016   0.024
  50  2.005   0.264   0.239   0.237   0.402   0.247   0.239   0.071   0.230
              0.024   0.015   0.002   0.014   0.022
  51  1.998   0.248   0.245   0.229   0.386   0.229   0.250   0.081   0.251
              0.023   0.016   0.002   0.016   0.023
  52  2.003   0.248   0.245   0.227   0.391   0.233   0.249   0.082   0.248
              0.024   0.016   0.002   0.015   0.023
  53  1.998   0.248   0.245   0.229   0.386   0.229   0.250   0.080   0.250
              0.023   0.016   0.002   0.016   0.023
  54  2.004   0.248   0.245   0.230   0.391   0.229   0.249   0.082   0.250
              0.023   0.015   0.002   0.016   0.023
  55  1.997   0.248   0.244   0.230   0.386   0.229   0.248   0.080   0.250
              0.023   0.016   0.002   0.017   0.024
  56  2.014   0.247   0.246   0.229   0.397   0.229   0.251   0.084   0.251
              0.023   0.016   0.002   0.016   0.023
  57  1.997   0.249   0.244   0.227   0.386   0.232   0.249   0.080   0.249
              0.023   0.017   0.002   0.017   0.024
  58  2.011   0.249   0.245   0.226   0.397   0.228   0.253   0.083   0.252
              0.024   0.014   0.002   0.016   0.023
  59  1.883   0.173   0.279   0.169   0.383   0.148   0.288   0.073   0.307
              0.024   0.012   0.001   0.011   0.015
  60  1.917   0.176   0.280   0.085   0.413   0.240   0.344   0.076   0.244
              0.018   0.004   0.001   0.015   0.021
  61  1.997   0.247   0.245   0.232   0.384   0.227   0.250   0.082   0.249
              0.023   0.016   0.001   0.016   0.024
  62  1.998   0.245   0.246   0.228   0.382   0.229   0.250   0.082   0.255
              0.024   0.016   0.001   0.017   0.024
  63  2.008   0.264   0.239   0.237   0.404   0.247   0.239   0.071   0.230
              0.024   0.015   0.002   0.014   0.022
  64  1.997   0.248   0.245   0.229   0.385   0.229   0.249   0.080   0.250
              0.023   0.016   0.002   0.017   0.023
  65  2.009   0.249   0.245   0.227   0.396   0.234   0.249   0.083   0.247
              0.024   0.015   0.002   0.015   0.023
  66  1.996   0.247   0.245   0.230   0.383   0.229   0.250   0.081   0.251
              0.023   0.016   0.002   0.016   0.024
  67  2.004   0.249   0.245   0.225   0.393   0.227   0.252   0.082   0.252
              0.024   0.014   0.002   0.015   0.024
  68  1.965   0.236   0.248   0.214   0.367   0.209   0.255   0.085   0.264
              0.024   0.015   0.002   0.021   0.024
  69  1.966   0.184   0.280   0.082   0.449   0.253   0.346   0.076   0.236
              0.017   0.004   0.001   0.016   0.021
  71  1.996   0.246   0.245   0.231   0.383   0.227   0.250   0.082   0.250
              0.023   0.016   0.001   0.016   0.024
  72  1.996   0.245   0.246   0.230   0.379   0.230   0.248   0.082   0.255
              0.024   0.016   0.001   0.017   0.024
  73  2.017   0.267   0.239   0.231   0.415   0.251   0.241   0.070   0.227
              0.024   0.014   0.002   0.014   0.022
  74  1.966   0.234   0.248   0.215   0.366   0.214   0.255   0.086   0.259
              0.024   0.016   0.002   0.022   0.024
  75  1.969   0.184   0.278   0.085   0.454   0.252   0.344   0.077   0.235
              0.017   0.005   0.001   0.015   0.021
  77  1.980   0.242   0.246   0.224   0.376   0.223   0.249   0.082   0.252
              0.022   0.017   0.002   0.020   0.025

mulliken: Qtot =      144.000

mulliken: Spin DOWN 

Species: H.ca                
Atom  Qatom  Qorb
               1s      1s      1Ppy    1Ppz    1Ppx    
   1  0.621   0.400   0.161   0.025   0.022   0.014
   3  0.624   0.417   0.149   0.024   0.021   0.012
   9  0.625   0.420   0.148   0.024   0.020   0.013
  32  0.623   0.407   0.158   0.017   0.018   0.022
  47  0.622   0.406   0.158   0.017   0.019   0.022
  70  0.625   0.423   0.148   0.024   0.018   0.013
  76  0.626   0.422   0.150   0.024   0.017   0.012
  78  0.622   0.405   0.162   0.025   0.017   0.014

Species: C.ca2               
Atom  Qatom  Qorb
               2s      2s      2py     2pz     2px     2py     2pz     2px     
               2Pdxy   2Pdyz   2Pdz2   2Pdxz   2Pdx2-y2
   2  1.980   0.242   0.246   0.224   0.376   0.223   0.249   0.082   0.252
              0.022   0.017   0.002   0.020   0.025
   4  1.969   0.184   0.278   0.085   0.454   0.252   0.344   0.077   0.235
              0.017   0.005   0.001   0.015   0.021
   5  1.966   0.235   0.248   0.215   0.366   0.214   0.255   0.086   0.259
              0.024   0.016   0.002   0.022   0.024
   6  2.017   0.267   0.239   0.231   0.415   0.251   0.241   0.070   0.227
              0.024   0.014   0.002   0.014   0.022
   7  1.996   0.245   0.246   0.229   0.379   0.229   0.248   0.082   0.255
              0.024   0.016   0.001   0.017   0.024
   8  1.996   0.246   0.245   0.231   0.383   0.227   0.250   0.082   0.250
              0.023   0.016   0.001   0.016   0.024
  10  1.966   0.184   0.280   0.082   0.450   0.253   0.346   0.076   0.237
              0.017   0.004   0.001   0.016   0.021
  11  1.966   0.236   0.248   0.214   0.367   0.209   0.255   0.085   0.264
              0.024   0.015   0.002   0.021   0.024
  12  2.004   0.249   0.244   0.225   0.393   0.227   0.252   0.082   0.252
              0.024   0.014   0.002   0.015   0.024
  13  1.996   0.247   0.245   0.229   0.383   0.229   0.250   0.081   0.251
              0.023   0.016   0.002   0.016   0.024
  14  2.009   0.249   0.245   0.227   0.396   0.234   0.249   0.083   0.247
              0.024   0.015   0.002   0.015   0.023
  15  1.997   0.248   0.245   0.230   0.385   0.229   0.249   0.080   0.250
              0.023   0.016   0.002   0.017   0.023
  16  2.008   0.264   0.239   0.237   0.404   0.247   0.239   0.071   0.230
              0.024   0.015   0.002   0.014   0.022
  17  1.998   0.245   0.246   0.227   0.382   0.230   0.250   0.082   0.255
              0.024   0.016   0.001   0.017   0.024
  18  1.997   0.247   0.245   0.232   0.384   0.227   0.250   0.082   0.249
              0.023   0.016   0.001   0.016   0.024
  19  1.917   0.176   0.280   0.085   0.413   0.240   0.344   0.076   0.244
              0.018   0.004   0.001   0.015   0.021
  20  1.883   0.173   0.279   0.169   0.383   0.148   0.288   0.073   0.307
              0.024   0.012   0.001   0.011   0.015
  21  2.011   0.249   0.245   0.226   0.397   0.228   0.253   0.083   0.251
              0.024   0.014   0.002   0.016   0.023
  22  1.997   0.249   0.244   0.226   0.386   0.232   0.249   0.080   0.249
              0.023   0.017   0.002   0.017   0.024
  23  2.014   0.247   0.246   0.229   0.397   0.229   0.251   0.084   0.251
              0.024   0.016   0.002   0.016   0.024
  24  1.997   0.248   0.244   0.231   0.386   0.229   0.248   0.080   0.250
              0.023   0.016   0.002   0.017   0.024
  25  2.004   0.248   0.245   0.230   0.391   0.229   0.249   0.082   0.250
              0.023   0.015   0.002   0.016   0.023
  26  1.998   0.248   0.245   0.229   0.386   0.229   0.250   0.080   0.250
              0.023   0.016   0.002   0.016   0.023
  27  2.003   0.248   0.245   0.228   0.391   0.233   0.249   0.082   0.248
              0.024   0.016   0.002   0.015   0.023
  28  1.998   0.248   0.245   0.229   0.386   0.229   0.250   0.081   0.251
              0.023   0.016   0.002   0.016   0.023
  29  2.005   0.264   0.239   0.236   0.402   0.247   0.239   0.071   0.230
              0.024   0.015   0.001   0.014   0.022
  30  1.997   0.245   0.246   0.227   0.381   0.230   0.250   0.082   0.255
              0.024   0.016   0.001   0.016   0.024
  31  1.995   0.247   0.245   0.232   0.383   0.228   0.250   0.082   0.249
              0.023   0.016   0.002   0.016   0.024
  33  2.023   0.243   0.248   0.215   0.411   0.227   0.260   0.090   0.249
              0.023   0.015   0.002   0.016   0.024
  34  2.013   0.246   0.247   0.227   0.393   0.231   0.250   0.085   0.254
              0.024   0.015   0.001   0.016   0.024
  35  1.999   0.266   0.238   0.237   0.398   0.249   0.238   0.068   0.228
              0.024   0.015   0.002   0.015   0.022
  36  2.003   0.248   0.245   0.229   0.389   0.229   0.250   0.082   0.251
              0.023   0.015   0.002   0.016   0.023
  37  1.998   0.248   0.244   0.227   0.388   0.234   0.249   0.081   0.247
              0.024   0.016   0.002   0.016   0.023
  38  2.003   0.247   0.245   0.229   0.390   0.230   0.251   0.082   0.250
              0.023   0.016   0.002   0.016   0.023
  39  1.998   0.248   0.244   0.230   0.387   0.229   0.249   0.081   0.250
              0.023   0.016   0.002   0.016   0.023
  40  2.002   0.248   0.245   0.230   0.389   0.229   0.249   0.082   0.250
              0.023   0.015   0.002   0.016   0.023
  41  1.997   0.248   0.245   0.229   0.386   0.230   0.250   0.080   0.250
              0.024   0.016   0.002   0.016   0.023
  42  2.003   0.248   0.245   0.227   0.391   0.234   0.249   0.082   0.247
              0.024   0.016   0.002   0.015   0.023
  43  1.996   0.248   0.245   0.229   0.385   0.229   0.250   0.080   0.251
              0.023   0.016   0.002   0.016   0.023
  44  2.006   0.266   0.238   0.237   0.404   0.250   0.239   0.070   0.229
              0.024   0.015   0.001   0.014   0.022
  45  1.987   0.246   0.245   0.227   0.375   0.231   0.250   0.079   0.254
              0.024   0.016   0.001   0.016   0.024
  46  1.946   0.245   0.244   0.214   0.357   0.226   0.258   0.075   0.247
              0.023   0.016   0.002   0.016   0.024
  48  2.003   0.247   0.245   0.232   0.389   0.228   0.250   0.083   0.250
              0.023   0.016   0.002   0.016   0.024
  49  2.002   0.245   0.246   0.228   0.385   0.230   0.250   0.084   0.255
              0.024   0.016   0.001   0.016   0.024
  50  1.999   0.264   0.238   0.236   0.398   0.247   0.239   0.070   0.229
              0.024   0.015   0.002   0.014   0.022
  51  2.002   0.248   0.245   0.229   0.388   0.229   0.250   0.081   0.251
              0.023   0.015   0.002   0.016   0.023
  52  1.998   0.248   0.244   0.227   0.388   0.233   0.249   0.081   0.247
              0.024   0.016   0.002   0.016   0.023
  53  2.003   0.248   0.245   0.229   0.390   0.230   0.250   0.081   0.250
              0.023   0.016   0.002   0.016   0.023
  54  1.995   0.248   0.244   0.230   0.385   0.229   0.249   0.080   0.250
              0.023   0.016   0.002   0.016   0.023
  55  2.003   0.248   0.245   0.231   0.390   0.229   0.249   0.081   0.250
              0.023   0.015   0.002   0.015   0.024
  56  1.986   0.248   0.244   0.229   0.378   0.229   0.250   0.078   0.250
              0.023   0.016   0.002   0.016   0.023
  57  2.006   0.248   0.245   0.227   0.393   0.233   0.250   0.082   0.250
              0.023   0.015   0.002   0.014   0.024
  58  1.984   0.250   0.243   0.225   0.377   0.227   0.252   0.078   0.251
              0.024   0.015   0.002   0.016   0.024
  59  1.897   0.173   0.280   0.170   0.394   0.148   0.289   0.075   0.308
              0.024   0.009   0.001   0.009   0.015
  60  1.861   0.177   0.277   0.084   0.373   0.239   0.343   0.066   0.243
              0.018   0.004   0.001   0.016   0.021
  61  2.002   0.247   0.245   0.232   0.388   0.227   0.250   0.083   0.250
              0.023   0.016   0.001   0.016   0.024
  62  2.002   0.245   0.246   0.228   0.384   0.230   0.250   0.083   0.255
              0.024   0.016   0.001   0.016   0.024
  63  1.996   0.265   0.238   0.237   0.396   0.247   0.239   0.069   0.229
              0.024   0.015   0.002   0.014   0.022
  64  2.002   0.248   0.245   0.230   0.389   0.229   0.250   0.081   0.251
              0.023   0.015   0.002   0.015   0.023
[...]
         19.64  19.72  19.81  19.87  19.93  20.17  20.35  20.42  20.43  20.45
         20.52  20.54  20.57  20.64  20.67  20.84  20.91  20.91  20.93  20.97
         20.98  21.09  21.10  21.15  21.17  21.28  21.34  21.34  21.34  21.34
         21.38  21.38  21.45  21.48  21.55  21.56  21.58  21.66  21.74  21.74
         21.82  21.84  21.84  21.97  21.98  22.09  22.12  22.18  22.28  22.32
         22.40  22.42  22.45  22.51  22.52  22.61  22.67  22.70  22.70  22.72
         22.74  22.75  22.85  22.87  22.90  22.95  22.98  23.07  23.25  23.46
         23.52  23.54  23.62  23.79  23.95  24.34  24.37  24.37  24.52  24.64
         24.76  24.98  25.02  25.07  25.15  25.27  25.28  25.48  25.61  25.62
         25.71  26.02  26.06  26.25  26.27  26.41  26.59  26.65  26.89  27.18
         27.24  27.79  27.98  28.27  28.40  28.48  28.81  28.87  29.16  29.23
         29.89  30.10  30.11  30.49  30.50  30.86  30.94  31.15  31.15  31.18
         31.31  31.66  32.03  32.37  32.44  32.57  32.62  32.70  32.74  33.20
         33.48  33.65  33.76  34.14  34.19  34.27  34.73  34.79  34.81  34.83
         34.99  35.05  35.21  35.25  35.28  35.34  35.47  35.51  35.58  35.59
         35.63  35.86  36.02  36.13  36.20  36.22  36.25  36.27  36.55  36.81
         36.82  37.14  37.27  37.47  37.65  37.70  37.71  37.71  38.15  38.20
         39.10  39.14  39.15  39.23  39.68  39.82  40.60  40.63  40.90  41.01
         41.42  41.43  42.19  42.21  42.62  42.71  42.75  43.04  43.04  43.14
         43.24  43.27  43.49  43.51  43.80  43.89  44.06  44.15  44.30  44.37
         44.38  44.54  44.71  44.88  45.27  45.27  45.34  45.49  45.86  45.89
         45.93  46.01  46.07  46.15  46.25  46.49  46.62  46.63  46.89  46.95
         47.00  47.10  47.37  47.46  47.62  47.69  47.97  47.99  48.05  48.26
         48.34  48.35  48.42  48.77  48.80  48.85  48.97  49.18  49.19  49.25
         49.27  49.28  49.30  49.45  49.48  49.51  49.52  49.59  49.66  49.88
         50.07  50.11  50.17  50.18  50.50  50.53  50.55  50.55  50.56  50.78
         50.86  51.41  51.45  51.62  51.77  51.95  52.01  52.15  52.28  52.49
         52.58  52.76  52.82  52.85  52.96  52.98  53.23  53.35  53.35  53.66
         53.89  53.90  54.01  54.03  54.13  54.28  54.42  54.65  54.83  54.84
         54.94  55.03  55.21  55.31  55.33  55.41  55.84  55.87  55.99  56.10
         56.14  56.26  56.42  56.50  56.59  56.67  57.06  57.77  57.87  57.98
         58.13  58.27  58.43  58.50  58.80  58.84  58.97  59.07  59.12  59.21
         59.36  59.49  59.66  59.89  59.90  59.99  60.09  60.30  60.51  60.73
         60.78  60.89  60.93  60.98  61.04  61.24  61.39  61.54  61.90  62.20
         62.21  62.39  62.73  63.04  63.18  63.38  63.42  63.54  63.54  64.19
         64.51  64.90  65.82  65.87  65.98  66.90  66.94  67.13  68.02  68.22
         69.42  69.45  69.53  69.76  70.34  70.38  70.38  70.92  71.02  71.04
         71.35  71.56  71.61  71.64  71.69  71.74  71.76  71.81  71.96  72.12
         72.29  72.45  72.47  72.59  72.70  73.22  73.22  73.32  73.37  73.74
         73.75  73.80  73.97  73.99  74.03  74.06  74.25  74.34  74.34  74.37
         74.40  74.64  74.74  74.92  75.04  75.17  76.06  76.24  76.25  76.57
         77.11  77.20  77.62  77.67  78.93  79.08  80.01  80.02  80.07  81.06
         81.34  81.48  81.57  81.59  81.59  81.77  81.84  81.92  82.58  82.60
         82.67  83.35  83.63  83.95  84.07  84.27  84.80  86.20  86.42  86.90
         87.53  88.19  88.28  89.57  89.59  89.82  90.90  91.57  92.07  92.25
         92.98  93.42  93.60  94.22  95.30  95.57  96.84  96.89  97.28  98.12
         99.18  99.50  99.90 100.27 100.34 100.70 101.01 101.30 101.62 102.66
        102.69 103.29 103.66 103.66 104.50 104.56 105.36 105.45 107.23 107.29
        107.47 108.61 111.39 111.50 112.58 113.44 113.70 114.26 114.84 115.19
        115.36 115.49 116.98 117.01 117.85 118.23 118.48 119.05 119.77 120.41
        122.51 123.89 124.34 124.57 124.94 125.61 128.42 129.87 131.33 131.75
        132.38 133.22 134.06 134.08 136.71 136.73 138.07 138.08 138.12 138.15
        138.19 138.30 138.82 139.98 140.19 140.30 140.76 141.14 141.51 142.37
        144.47 144.62 144.86 144.91 145.11 145.48 146.49 149.33 149.51 149.57
        150.23 150.75 152.23 154.43 159.87 160.02 178.16 178.33 201.79 201.89
  51  2 -22.58 -22.57 -22.40 -22.38 -22.13 -22.08 -21.76 -21.67 -21.30 -21.15
        -20.74 -20.52 -20.10 -19.96 -19.95 -19.82 -19.78 -19.75 -19.49 -19.48
        -19.40 -19.15 -19.06 -18.97 -18.72 -18.67 -18.46 -18.21 -18.11 -18.08
        -17.79 -17.54 -17.44 -16.88 -16.81 -16.59 -16.39 -15.96 -15.63 -15.58
        -15.47 -15.21 -15.11 -15.01 -14.91 -14.83 -14.60 -14.59 -14.41 -14.24
        -14.14 -14.05 -13.87 -13.85 -13.65 -13.63 -13.49 -13.40 -13.28 -13.27
        -13.11 -13.05 -12.85 -12.65 -12.35 -12.20 -12.04 -11.82 -11.60 -11.47
        -11.36 -11.25 -11.16 -10.97 -10.96 -10.92 -10.80 -10.80 -10.61 -10.59
        -10.58 -10.57 -10.43 -10.38 -10.27 -10.26 -10.22 -10.18 -10.17 -10.14
        -10.03  -9.98  -9.86  -9.84  -9.81  -9.77  -9.74  -9.73  -9.69  -9.58
         -9.38  -9.31  -9.25  -9.15  -9.13  -8.92  -8.90  -8.69  -8.64  -8.56
         -8.46  -8.45  -8.38  -8.17  -8.13  -7.99  -7.98  -7.98  -7.75  -7.74
         -7.71  -7.69  -7.65  -7.56  -7.55  -7.51  -7.48  -7.26  -7.25  -7.21
         -6.95  -6.85  -6.83  -6.53  -6.43  -6.34  -6.26  -6.10  -5.87  -5.74
         -5.25  -5.10  -4.59  -4.53  -2.81  -2.75  -2.25  -2.12  -1.81  -1.64
         -1.60  -1.44  -1.16  -1.03  -0.96  -0.58  -0.51  -0.41  -0.03  -0.01
          0.02   0.43   0.43   0.61   0.71   0.74   1.07   1.80   1.96   1.98
          2.20   2.48   2.52   3.00   3.34   3.78   3.82   3.98   4.12   4.16
          4.20   4.22   4.30   4.41   4.46   4.48   4.62   4.77   4.83   4.84
          4.86   4.94   5.01   5.05   5.15   5.20   5.20   5.37   5.38   5.51
          5.53   5.75   5.76   5.84   6.05   6.11   6.13   6.22   6.32   6.36
          6.45   6.51   6.60   6.62   6.73   6.90   7.25   7.29   7.37   7.41
          7.57   7.65   8.21   8.21   8.30   8.31   8.44   8.45   8.48   8.49
          8.53   8.60   8.63   8.69   8.78   8.85   8.88   8.96   9.12   9.13
          9.19   9.30   9.35   9.41   9.50   9.71   9.71   9.84   9.92   9.96
          9.97   9.99  10.06  10.12  10.13  10.16  10.16  10.21  10.39  10.44
         10.45  10.48  10.49  10.58  10.66  10.74  10.78  10.85  10.88  10.94
         11.04  11.10  11.12  11.25  11.29  11.32  11.34  11.41  11.49  11.49
         11.53  11.56  11.58  11.59  11.65  11.73  11.74  11.75  11.92  11.97
         12.02  12.04  12.08  12.20  12.21  12.25  12.30  12.34  12.41  12.42
         12.45  12.45  12.46  12.51  12.53  12.55  12.56  12.64  12.65  12.68
         12.69  12.73  12.74  12.74  12.77  12.80  12.80  12.83  12.86  12.90
         12.95  12.95  13.00  13.03  13.16  13.18  13.23  13.31  13.32  13.44
         13.50  13.54  13.58  13.61  13.72  13.80  13.92  13.99  14.00  14.01
         14.11  14.22  14.29  14.35  14.36  14.40  14.44  14.86  15.01  15.19
         15.22  15.67  15.77  15.81  15.96  16.14  16.19  16.26  16.27  16.40
         16.53  16.55  17.20  17.37  17.39  17.40  17.56  17.62  17.95  17.99
         18.01  18.04  18.08  18.10  18.14  18.15  18.17  18.24  18.26  18.32
         18.33  18.37  18.43  18.55  18.61  18.73  18.75  18.76  18.86  18.92
         18.94  18.95  18.98  19.16  19.22  19.23  19.33  19.38  19.52  19.60
         19.64  19.72  19.81  19.87  19.93  20.17  20.35  20.42  20.43  20.45
         20.52  20.54  20.57  20.64  20.66  20.84  20.91  20.91  20.93  20.97
         20.98  21.09  21.10  21.15  21.17  21.28  21.34  21.34  21.34  21.34
         21.38  21.38  21.45  21.48  21.55  21.56  21.58  21.66  21.74  21.74
         21.82  21.84  21.84  21.97  21.98  22.09  22.12  22.18  22.28  22.32
         22.40  22.42  22.45  22.51  22.52  22.61  22.67  22.70  22.70  22.72
         22.74  22.75  22.85  22.87  22.90  22.95  22.98  23.07  23.25  23.46
         23.52  23.54  23.62  23.79  23.95  24.34  24.37  24.37  24.52  24.64
         24.76  24.98  25.02  25.07  25.15  25.27  25.28  25.48  25.61  25.62
         25.71  26.02  26.06  26.25  26.27  26.41  26.59  26.65  26.89  27.18
         27.24  27.79  27.98  28.27  28.40  28.48  28.81  28.87  29.16  29.23
         29.89  30.10  30.11  30.49  30.50  30.86  30.94  31.15  31.15  31.18
         31.31  31.66  32.03  32.37  32.44  32.57  32.62  32.70  32.74  33.20
         33.48  33.65  33.76  34.14  34.19  34.27  34.73  34.79  34.81  34.83
         34.99  35.05  35.21  35.25  35.28  35.34  35.47  35.51  35.58  35.59
         35.63  35.86  36.02  36.13  36.20  36.22  36.25  36.27  36.55  36.81
         36.82  37.14  37.27  37.47  37.65  37.70  37.71  37.71  38.15  38.20
         39.10  39.14  39.15  39.23  39.68  39.82  40.60  40.63  40.90  41.01
         41.42  41.43  42.19  42.21  42.62  42.71  42.75  43.04  43.04  43.14
         43.24  43.27  43.49  43.51  43.80  43.89  44.06  44.15  44.30  44.37
         44.38  44.54  44.71  44.88  45.27  45.27  45.34  45.49  45.86  45.89
         45.93  46.01  46.07  46.15  46.25  46.49  46.62  46.63  46.89  46.95
         47.00  47.10  47.37  47.46  47.62  47.69  47.97  47.99  48.05  48.26
         48.34  48.35  48.42  48.77  48.80  48.85  48.97  49.18  49.19  49.25
         49.27  49.28  49.30  49.45  49.49  49.51  49.52  49.59  49.66  49.88
         50.07  50.11  50.17  50.18  50.50  50.53  50.55  50.55  50.56  50.78
         50.86  51.41  51.45  51.62  51.77  51.95  52.01  52.15  52.28  52.49
         52.58  52.76  52.82  52.85  52.96  52.98  53.23  53.35  53.35  53.66
         53.89  53.90  54.01  54.03  54.13  54.28  54.42  54.65  54.83  54.84
         54.94  55.03  55.21  55.31  55.33  55.41  55.84  55.87  55.99  56.10
         56.14  56.26  56.42  56.50  56.59  56.67  57.06  57.77  57.87  57.98
         58.13  58.27  58.43  58.50  58.80  58.84  58.97  59.07  59.12  59.21
         59.36  59.49  59.66  59.89  59.90  59.99  60.09  60.30  60.51  60.73
         60.78  60.89  60.93  60.98  61.04  61.24  61.39  61.54  61.90  62.20
         62.21  62.39  62.73  63.04  63.18  63.38  63.42  63.54  63.54  64.19
         64.51  64.90  65.82  65.87  65.98  66.90  66.94  67.13  68.02  68.22
         69.42  69.45  69.53  69.76  70.34  70.38  70.38  70.92  71.02  71.04
         71.35  71.56  71.61  71.64  71.69  71.74  71.76  71.81  71.96  72.12
         72.29  72.45  72.47  72.59  72.70  73.22  73.22  73.32  73.37  73.74
         73.75  73.80  73.97  73.99  74.03  74.06  74.25  74.34  74.34  74.37
         74.40  74.64  74.74  74.92  75.04  75.17  76.06  76.24  76.25  76.57
         77.11  77.20  77.62  77.67  78.93  79.08  80.01  80.02  80.07  81.06
         81.34  81.48  81.57  81.59  81.59  81.77  81.84  81.92  82.58  82.60
         82.67  83.35  83.63  83.95  84.07  84.27  84.80  86.20  86.42  86.90
         87.53  88.19  88.28  89.57  89.59  89.82  90.90  91.57  92.07  92.25
         92.98  93.42  93.60  94.22  95.30  95.57  96.84  96.89  97.28  98.12
         99.18  99.50  99.90 100.27 100.34 100.70 101.01 101.30 101.62 102.66
        102.69 103.29 103.66 103.66 104.50 104.56 105.36 105.45 107.23 107.29
        107.47 108.61 111.39 111.50 112.58 113.44 113.70 114.26 114.84 115.19
        115.36 115.49 116.98 117.01 117.85 118.23 118.48 119.05 119.77 120.41
        122.51 123.89 124.34 124.57 124.94 125.61 128.42 129.87 131.33 131.75
        132.38 133.22 134.06 134.08 136.71 136.73 138.07 138.08 138.12 138.15
        138.19 138.30 138.82 139.98 140.19 140.30 140.76 141.14 141.51 142.37
        144.47 144.62 144.86 144.91 145.11 145.48 146.49 149.33 149.51 149.57
        150.23 150.75 152.23 154.43 159.87 160.02 178.16 178.33 201.79 201.89
siesta: Fermi energy =      -3.714576 eV

siesta: Program's energy decomposition (eV):
siesta: Ebs     =     -3640.290049
siesta: Eions   =     18041.771100
siesta: Ena     =      3771.201736
siesta: Ekin    =      7853.624186
siesta: Enl     =     -1012.143636
siesta: Eso     =         0.000000
siesta: Eldau   =         0.000000
siesta: DEna    =      -198.606943
siesta: DUscf   =        18.944592
siesta: DUext   =         0.000000
siesta: Enegf   =         0.000000
siesta: Exc     =     -3384.687172
siesta: eta*DQ  =         0.000000
siesta: Emadel  =         0.000000
siesta: Emeta   =         0.000000
siesta: Emolmec =         0.000000
siesta: Ekinion =         0.000000
siesta: Eharris =    -10993.438338
siesta: Etot    =    -10993.438338
siesta: FreeEng =    -10993.444410

siesta: Final energy (eV):
siesta:  Band Struct. =   -3640.290049
siesta:       Kinetic =    7853.624186
siesta:       Hartree =  106966.940962
siesta:       Eldau   =       0.000000
siesta:       Eso     =       0.000000
siesta:    Ext. field =       0.000000
siesta:       Enegf   =       0.000000
siesta:   Exch.-corr. =   -3384.687172
siesta:  Ion-electron = -221002.578986
siesta:       Ion-ion =   98573.262672
siesta:       Ekinion =       0.000000
siesta:         Total =  -10993.438338
siesta:         Fermi =      -3.714576

siesta: Stress tensor (static) (eV/Ang**3):
siesta:     0.000637   -0.000006    0.000000
siesta:    -0.000006    0.000006   -0.000000
siesta:     0.000000    0.000000    0.000005

siesta: Cell volume =       8870.000000 Ang**3

siesta: Pressure (static):
siesta:                Solid            Molecule  Units
siesta:          -0.00000235         -0.00000232  Ry/Bohr**3
siesta:          -0.00021616         -0.00021297  eV/Ang**3
siesta:          -0.34633377         -0.34122690  kBar
(Free)E+ p_basis*V_orbitals  =      -10970.698852
(Free)Eharris+ p_basis*V_orbitals  =      -10970.698852

siesta: Total spin polarization (Qup-Qdown) =   -0.000020

siesta: Electric dipole (a.u.)  =   -0.000000    0.000085   -0.000000
siesta: Electric dipole (Debye) =   -0.000000    0.000215   -0.000000

Hirshfeld Net Atomic Populations:
Atom #    Qatom  Species
     1    0.026  H.ca                
     2    0.003  C.ca2               
     3    0.029  H.ca                
     4   -0.036  C.ca2               
     5    0.004  C.ca2               
     6    0.001  C.ca2               
     7    0.001  C.ca2               
     8   -0.000  C.ca2               
     9    0.033  H.ca                
    10   -0.035  C.ca2               
    11    0.005  C.ca2               
    12    0.002  C.ca2               
    13    0.000  C.ca2               
    14    0.000  C.ca2               
    15   -0.000  C.ca2               
    16   -0.000  C.ca2               
    17   -0.000  C.ca2               
    18   -0.000  C.ca2               
    19   -0.032  C.ca2               
    20   -0.034  C.ca2               
    21    0.003  C.ca2               
    22    0.000  C.ca2               
    23   -0.000  C.ca2               
    24   -0.000  C.ca2               
    25   -0.000  C.ca2               
    26   -0.000  C.ca2               
    27   -0.000  C.ca2               
    28   -0.000  C.ca2               
    29   -0.000  C.ca2               
    30   -0.000  C.ca2               
    31    0.000  C.ca2               
    32    0.030  H.ca                
    33    0.005  C.ca2               
    34   -0.001  C.ca2               
    35   -0.001  C.ca2               
    36   -0.000  C.ca2               
    37   -0.000  C.ca2               
    38   -0.000  C.ca2               
    39   -0.000  C.ca2               
    40   -0.000  C.ca2               
    41   -0.000  C.ca2               
    42   -0.000  C.ca2               
    43   -0.000  C.ca2               
    44   -0.001  C.ca2               
    45   -0.001  C.ca2               
    46    0.005  C.ca2               
    47    0.030  H.ca                
    48    0.000  C.ca2               
    49   -0.000  C.ca2               
    50   -0.000  C.ca2               
    51   -0.000  C.ca2               
    52   -0.000  C.ca2               
    53   -0.000  C.ca2               
    54   -0.000  C.ca2               
    55   -0.000  C.ca2               
    56   -0.000  C.ca2               
    57    0.000  C.ca2               
    58    0.003  C.ca2               
    59   -0.034  C.ca2               
    60   -0.032  C.ca2               
    61   -0.000  C.ca2               
    62   -0.000  C.ca2               
    63   -0.000  C.ca2               
    64   -0.000  C.ca2               
    65    0.000  C.ca2               
    66    0.000  C.ca2               
    67    0.002  C.ca2               
    68    0.005  C.ca2               
    69   -0.035  C.ca2               
    70    0.033  H.ca                
    71   -0.000  C.ca2               
    72    0.001  C.ca2               
    73    0.001  C.ca2               
    74    0.004  C.ca2               
    75   -0.036  C.ca2               
    76    0.029  H.ca                
    77    0.003  C.ca2               
    78    0.026  H.ca                

Voronoi Net Atomic Populations:
Atom #    Qatom  Species
     1    0.005  H.ca                
     2    0.003  C.ca2               
     3    0.005  H.ca                
     4   -0.015  C.ca2               
     5    0.004  C.ca2               
     6    0.002  C.ca2               
     7    0.000  C.ca2               
     8   -0.002  C.ca2               
     9    0.009  H.ca                
    10   -0.012  C.ca2               
    11    0.006  C.ca2               
    12    0.002  C.ca2               
    13    0.001  C.ca2               
    14    0.001  C.ca2               
    15   -0.001  C.ca2               
    16    0.000  C.ca2               
    17    0.002  C.ca2               
    18   -0.002  C.ca2               
    19   -0.008  C.ca2               
    20   -0.012  C.ca2               
    21    0.003  C.ca2               
    22   -0.004  C.ca2               
    23   -0.001  C.ca2               
    24    0.002  C.ca2               
    25   -0.001  C.ca2               
    26   -0.003  C.ca2               
    27    0.001  C.ca2               
    28    0.001  C.ca2               
    29   -0.001  C.ca2               
    30   -0.002  C.ca2               
    31    0.001  C.ca2               
    32    0.011  H.ca                
    33    0.008  C.ca2               
    34   -0.003  C.ca2               
    35   -0.003  C.ca2               
    36    0.001  C.ca2               
    37    0.003  C.ca2               
    38   -0.002  C.ca2               
    39    0.001  C.ca2               
    40    0.002  C.ca2               
    41    0.001  C.ca2               
    42   -0.002  C.ca2               
    43   -0.001  C.ca2               
    44    0.002  C.ca2               
    45   -0.001  C.ca2               
    46    0.002  C.ca2               
    47    0.007  H.ca                
    48   -0.002  C.ca2               
    49   -0.000  C.ca2               
    50    0.001  C.ca2               
    51   -0.002  C.ca2               
    52   -0.000  C.ca2               
    53    0.000  C.ca2               
    54   -0.001  C.ca2               
    55   -0.002  C.ca2               
    56    0.002  C.ca2               
    57    0.002  C.ca2               
    58   -0.001  C.ca2               
    59   -0.010  C.ca2               
    60   -0.005  C.ca2               
    61   -0.001  C.ca2               
    62    0.002  C.ca2               
    63    0.001  C.ca2               
    64   -0.001  C.ca2               
    65   -0.003  C.ca2               
    66    0.002  C.ca2               
    67    0.002  C.ca2               
    68    0.005  C.ca2               
    69   -0.013  C.ca2               
    70    0.009  H.ca                
    71    0.003  C.ca2               
    72    0.001  C.ca2               
    73   -0.001  C.ca2               
    74    0.006  C.ca2               
    75   -0.013  C.ca2               
    76    0.004  H.ca                
    77    0.001  C.ca2               
    78    0.004  H.ca                
>> End of run:  17-APR-2018   2:49:34
Job completed
Job completed
