Siesta Version  : siesta-4.1--852
Architecture    : unknown
Compiler version: ifort (IFORT) 17.0.4 20170411
Compiler flags  : mpiifort -O1 -xHost -mp1 -fpp -ftz -I/scicomp/easybuild/CentOS/7.3.1611/Hasweell/software/imkl/2017.3.196-iimpi-2017b/mkl/include -I/scratch/scicomp/easybuild/CentOS/7.3.1611/Haswell/software/netCDF-Fortran/4.4.4-intel-2017b/include -I/scratch/scicomp/easybuild/CentOS/7.3.1611/Haswell/software/netCDF/4.4.1.1-intel-2017b/include
PP flags        :  -DFC_HAVE_ABORT -DMPI -DCDF -DNCDF -DNCDF_4 -DGRID_DP -DNCDF_PARALLEL
Libraries       : libncdf.a libfdict.a -L/scratch/scicomp/easybuild/CentOS/7.3.1611/Haswell/sofftware/netCDF-Fortran/4.4.4-intel-2017b/lib -lnetcdff -L/scratch/scicomp/easybuild/CentOS/7.3.1611/Haswell/software/cURL/7.56.0-GCCcore-6.4.0/lib -lcurl -L/scratch/scicomp/easybuild/CentOS/7.3.1611/Haswell/software/netCDF/4.4.1.1-intel-2017b/lib64 -lnetcdf -L/scratch/scicomp/easybuild/CentOS/7.3.1611/Haswell/software/HDF5/1.10.1-intel-2017b/lib -lhdf5hl_fortran -lhdf5_fortran -lhdf5_hl -lhdf5 -L/scratch/scicomp/easybuild/CentOS/7.3.1611/Haswell/software/Szip/2.1.1-GCCcore-6.4.0/lib -lsz -L/scratch/scicomp/easybuild/CentOS/7.3.1611/Haswell/software/zlib/1.2.11-GCCcore-6.4.0/lib -lz /scicomp/easybuild/CentOS/7.3.1611/Haswell/software/imkl/2017.3.196-iimpi-2017b/mkl/lib/intel64/libmkl_scalapack_lp64.a -Wl,--start-group /scicomp/easybuild/CentOS/7.3.1611/Haswell/software/imkl/2017.3.196-iimpi-2017b/mkl/lib/intel64/libmkl_intel_lp64.a /scicomp/easybuild/CentOS/7.3.1611/Haswell/software/imkl/2017.3.196-iimpi-2017b/mkl/lib/intel64/libmkl_sequential.a /scicomp/easybuild/CentOS/7.3.1611/Haswell/software/imkl/2017.3.196-iimpi-2017b/mkl/lib/intel64/libmkl_core.a /scicomp/easybuild/CentOS/7.3.1611/Haswell/software/imkl/2017.3.196-iimpi-2017b/mkl/lib/intel64/libmkl_blacs_intelmpi_lp64.a -Wl,--end-group -lpthread -lm -ldl
PARALLEL version
NetCDF support
NetCDF-4 support
NetCDF-4 MPI-IO support

* Running on 24 nodes in parallel
>> Start of run:  17-APR-2018  21:21:10

                           ***********************       
                           *  WELCOME TO SIESTA  *       
                           ***********************       

reinit: Reading from standard input
reinit: Dumped input in INPUT_TMP.23940
************************** Dump of input data file ****************************
SystemTitle molecule
SystemLabel molecule
SolutionMethod     diagon
TS.HS.Save         true
MD.TypeOfRun  CG
MD.TypeOfRun  Broyden
MD.Broyden.Cycle.On.Maxit F
MD.NumCGsteps  1000
MD.MaxForceTol 0.002 eV/Ang
Diag.ParallelOverK true
%block kgrid_Monkhorst_Pack
 100    0    0    0.0
  0    1    0    0.0
  0    0    1    0.0
%endblock kgrid_Monkhorst_Pack
MaxSCFIterations      3000
SCFMustConverge       true
DM.Tolerance          1.d-5
DM.UseSaveDM          true
DM.NumberPulay	      7
DM.MixingWeight       0.1
MD.UseSaveXV          true
XC.functional         GGA
XC.authors     	      PBE
MeshCutoff            400. Ry
PAO.BasisSize   DZP
PAO.BasisType   split
%block ChemicalSpeciesLabel
    1   1 H.mpn
    2   6 C.mpn
%endblock ChemicalSpeciesLabel
%include STRUCT.fdf
SpinPolarized   true
#FixSpin  true
#Spin.Fix true
#Spin.Total 0
#TotalSpin  0
%block DM.InitSpin
29   1.
11  -1.
%endblock DM.InitSpin
WriteMullikenPop 1
WriteHirshfeldPop true
WriteVoronoiPop true
WriteEigenvalues true
WriteWaveFunctions true
************************** End of input data file *****************************

reinit: -----------------------------------------------------------------------
reinit: System Name: 
reinit: -----------------------------------------------------------------------
reinit: System Label: molecule
reinit: -----------------------------------------------------------------------

initatom: Reading input for the pseudopotentials and atomic orbitals ----------
Species number:   1 Atomic number:    1 Label: H.mpn
Species number:   2 Atomic number:    6 Label: C.mpn
 
Ground state valence configuration:   1s01
Reading pseudopotential information in unformatted form from H.mpn.vps

Pseudopotential generated from a relativistic atomic calculation

Valence configuration for pseudopotential generation:
1s( 1.00) rc: 1.25
2p( 0.00) rc: 1.25
3d( 0.00) rc: 1.25
4f( 0.00) rc: 1.19
Ground state valence configuration:   2s02  2p02
Reading pseudopotential information in unformatted form from C.mpn.vps

Pseudopotential generated from a relativistic atomic calculation

Valence configuration for pseudopotential generation:
2s( 2.00) rc: 1.25
2p( 2.00) rc: 1.25
3d( 0.00) rc: 1.98
4f( 0.00) rc: 1.98
For H.mpn, standard SIESTA heuristics set lmxkb to 2
 (one more than the basis l, including polarization orbitals).
Use PS.lmax or PS.KBprojectors blocks to override.
For C.mpn, standard SIESTA heuristics set lmxkb to 3
 (one more than the basis l, including polarization orbitals).
Use PS.lmax or PS.KBprojectors blocks to override.

<basis_specs>
===============================================================================
H.mpn                Z=   1    Mass=  1.0100        Charge= 0.17977+309
Lmxo=0 Lmxkb= 2    BasisType=split      Semic=F
L=0  Nsemic=0  Cnfigmx=1
          n=1  nzeta=2  polorb=1
            splnorm:   0.15000    
               vcte:    0.0000    
               rinn:    0.0000    
               qcoe:    0.0000    
               qyuk:    0.0000    
               qwid:   0.10000E-01
                rcs:    0.0000      0.0000    
            lambdas:    1.0000      1.0000    
-------------------------------------------------------------------------------
L=0  Nkbl=1  erefs: 0.17977+309
L=1  Nkbl=1  erefs: 0.17977+309
L=2  Nkbl=1  erefs: 0.17977+309
===============================================================================
</basis_specs>

atom: Called for H.mpn                 (Z =   1)

read_vps: Pseudopotential generation method:
read_vps: ATM3      Troullier-Martins                       
Total valence charge:    1.00000

xc_check: Exchange-correlation functional:
xc_check: GGA Perdew, Burke & Ernzerhof 1996
V l=0 = -2*Zval/r beyond r=  1.2343
V l=1 = -2*Zval/r beyond r=  1.2189
V l=2 = -2*Zval/r beyond r=  1.2189
All V_l potentials equal beyond r=  1.2343
This should be close to max(r_c) in ps generation
All pots = -2*Zval/r beyond r=  1.2343

VLOCAL1: 99.0% of the norm of Vloc inside     28.493 Ry
VLOCAL1: 99.9% of the norm of Vloc inside     64.935 Ry
atom: Maximum radius for 4*pi*r*r*local-pseudopot. charge    1.45251
atom: Maximum radius for r*vlocal+2*Zval:    1.21892
GHOST: No ghost state for L =  0
GHOST: No ghost state for L =  1
GHOST: No ghost state for L =  2

KBgen: Kleinman-Bylander projectors: 
   l= 0   rc=  1.398961   el= -0.477184   Ekb= -2.022489   kbcos= -0.344760
   l= 1   rc=  1.730774   el=  0.001076   Ekb= -0.447448   kbcos= -0.022756
   l= 2   rc=  2.036604   el=  0.002010   Ekb= -0.163621   kbcos= -0.002660

KBgen: Total number of  Kleinman-Bylander projectors:    9
atom: -------------------------------------------------------------------------

atom: SANKEY-TYPE ORBITALS:
atom: Selected multiple-zeta basis: split     

SPLIT: Orbitals with angular momentum L= 0

SPLIT: Basis orbitals for state 1s

SPLIT: PAO cut-off radius determined from an
SPLIT: energy shift=  0.020000 Ry

   izeta = 1
                 lambda =    1.000000
                     rc =    4.708991
                 energy =   -0.457736
                kinetic =    0.981128
    potential(screened) =   -1.438864
       potential(ionic) =   -1.967294

   izeta = 2
                 rmatch =    3.759707
              splitnorm =    0.150000
                 energy =   -0.338971
                kinetic =    1.585754
    potential(screened) =   -1.924724
       potential(ionic) =   -2.475189

POLgen: Perturbative polarization orbital with L=  1

POLgen: Polarization orbital for state 1s

   izeta = 1
                     rc =    4.708991
                 energy =    0.764910
                kinetic =    1.475806
    potential(screened) =   -0.710896
       potential(ionic) =   -1.203352
atom: Total number of Sankey-type orbitals:  5

atm_pop: Valence configuration (for local Pseudopot. screening):
 1s( 1.00)                                                            
Vna: chval, zval:    1.00000   1.00000

Vna:  Cut-off radius for the neutral-atom potential:   4.708991

atom: _________________________________________________________________________

<basis_specs>
===============================================================================
C.mpn                Z=   6    Mass=  12.010        Charge= 0.17977+309
Lmxo=1 Lmxkb= 3    BasisType=split      Semic=F
L=0  Nsemic=0  Cnfigmx=2
          n=1  nzeta=2  polorb=0
            splnorm:   0.15000    
               vcte:    0.0000    
               rinn:    0.0000    
               qcoe:    0.0000    
               qyuk:    0.0000    
               qwid:   0.10000E-01
                rcs:    0.0000      0.0000    
            lambdas:    1.0000      1.0000    
L=1  Nsemic=0  Cnfigmx=2
          n=1  nzeta=2  polorb=1
            splnorm:   0.15000    
               vcte:    0.0000    
               rinn:    0.0000    
               qcoe:    0.0000    
               qyuk:    0.0000    
               qwid:   0.10000E-01
                rcs:    0.0000      0.0000    
            lambdas:    1.0000      1.0000    
-------------------------------------------------------------------------------
L=0  Nkbl=1  erefs: 0.17977+309
L=1  Nkbl=1  erefs: 0.17977+309
L=2  Nkbl=1  erefs: 0.17977+309
L=3  Nkbl=1  erefs: 0.17977+309
===============================================================================
</basis_specs>

atom: Called for C.mpn                 (Z =   6)

read_vps: Pseudopotential generation method:
read_vps: ATM3      Troullier-Martins                       
Total valence charge:    4.00000

xc_check: Exchange-correlation functional:
xc_check: GGA Perdew, Burke & Ernzerhof 1996
V l=0 = -2*Zval/r beyond r=  1.5418
V l=1 = -2*Zval/r beyond r=  1.5418
V l=2 = -2*Zval/r beyond r=  1.9553
V l=3 = -2*Zval/r beyond r=  1.9310
All V_l potentials equal beyond r=  1.9310
This should be close to max(r_c) in ps generation
All pots = -2*Zval/r beyond r=  1.9553

VLOCAL1: 99.0% of the norm of Vloc inside     11.642 Ry
VLOCAL1: 99.9% of the norm of Vloc inside     26.531 Ry
atom: Maximum radius for 4*pi*r*r*local-pseudopot. charge    2.30035
atom: Maximum radius for r*vlocal+2*Zval:    2.00478
GHOST: No ghost state for L =  0
GHOST: No ghost state for L =  1
GHOST: No ghost state for L =  2
GHOST: No ghost state for L =  3

KBgen: Kleinman-Bylander projectors: 
   l= 0   rc=  2.134104   el= -1.010225   Ekb= 11.465766   kbcos=  0.116141
   l= 1   rc=  2.107589   el= -0.388560   Ekb= -6.457899   kbcos= -0.368830
   l= 2   rc=  2.300349   el=  0.001971   Ekb= -0.774314   kbcos= -0.017397
   l= 3   rc=  2.542323   el=  0.003065   Ekb= -0.308789   kbcos= -0.003148

KBgen: Total number of  Kleinman-Bylander projectors:   16
atom: -------------------------------------------------------------------------

atom: SANKEY-TYPE ORBITALS:
atom: Selected multiple-zeta basis: split     

SPLIT: Orbitals with angular momentum L= 0

SPLIT: Basis orbitals for state 2s

SPLIT: PAO cut-off radius determined from an
SPLIT: energy shift=  0.020000 Ry

   izeta = 1
                 lambda =    1.000000
                     rc =    4.088342
                 energy =   -0.989563
                kinetic =    0.944133
    potential(screened) =   -1.933696
       potential(ionic) =   -5.541314

   izeta = 2
                 rmatch =    3.347176
              splitnorm =    0.150000
                 energy =   -0.831414
                kinetic =    1.451472
    potential(screened) =   -2.282886
       potential(ionic) =   -6.119280

SPLIT: Orbitals with angular momentum L= 1

SPLIT: Basis orbitals for state 2p

SPLIT: PAO cut-off radius determined from an
SPLIT: energy shift=  0.020000 Ry

   izeta = 1
                 lambda =    1.000000
                     rc =    4.870301
                 energy =   -0.368749
                kinetic =    2.591962
    potential(screened) =   -2.960711
       potential(ionic) =   -6.464403

   izeta = 2
                 rmatch =    3.475094
              splitnorm =    0.150000
                 energy =   -0.206255
                kinetic =    3.888945
    potential(screened) =   -4.095199
       potential(ionic) =   -7.968192

POLgen: Perturbative polarization orbital with L=  2

POLgen: Polarization orbital for state 2p

   izeta = 1
                     rc =    4.870301
                 energy =    1.295231
                kinetic =    2.621946
    potential(screened) =   -1.326714
       potential(ionic) =   -4.277432
atom: Total number of Sankey-type orbitals: 13

atm_pop: Valence configuration (for local Pseudopot. screening):
 2s( 2.00)                                                            
 2p( 2.00)                                                            
Vna: chval, zval:    4.00000   4.00000

Vna:  Cut-off radius for the neutral-atom potential:   4.870301

atom: _________________________________________________________________________

prinput: Basis input ----------------------------------------------------------

PAO.BasisType split     

%block ChemicalSpeciesLabel
    1    1 H.mpn                   # Species index, atomic number, species label
    2    6 C.mpn                   # Species index, atomic number, species label
%endblock ChemicalSpeciesLabel

%block PAO.Basis                 # Define Basis set
H.mpn                 1                    # Species label, number of l-shells
 n=1   0   2 P   1                   # n, l, Nzeta, Polarization, NzetaPol
   4.709      3.760   
   1.000      1.000   
C.mpn                 2                    # Species label, number of l-shells
 n=2   0   2                         # n, l, Nzeta 
   4.088      3.347   
   1.000      1.000   
 n=2   1   2 P   1                   # n, l, Nzeta, Polarization, NzetaPol
   4.870      3.475   
   1.000      1.000   
%endblock PAO.Basis

prinput: ----------------------------------------------------------------------

Dumping basis to NetCDF file H.mpn.ion.nc
Dumping basis to NetCDF file C.mpn.ion.nc
coor:   Atomic-coordinates input format  =     Cartesian coordinates
coor:                                          (in Angstroms)

siesta: WARNING: XV file not found

siesta: Atomic coordinates (Bohr) and species
siesta:     21.94262  11.62679  18.89727  1        1
siesta:     20.43785  15.43179  18.89727  2        2
siesta:     26.35899  10.52104  18.89727  1        3
siesta:     22.37512  13.66527  18.89727  2        4
siesta:     24.93858  14.35798  18.89727  2        5
siesta:     21.07612  18.06550  18.89727  2        6
siesta:     23.65026  18.81367  18.89727  2        7
siesta:     22.38457  23.27590  18.89727  2        8
siesta:     30.84360   9.38978  18.89727  1        9
siesta:     26.86504  12.54609  18.89727  2       10
siesta:     29.40652  13.23634  18.89727  2       11
siesta:     25.59286  16.97763  18.89727  2       12
siesta:     28.16653  17.70368  18.89727  2       13
siesta:     24.30313  21.42550  18.89727  2       14
siesta:     26.89405  22.14927  18.89727  2       15
siesta:     23.03921  25.89616  18.89727  2       16
siesta:     25.62792  26.61234  18.89727  2       17
siesta:     24.35185  31.05201  18.89727  2       18
siesta:     20.40859  31.82219  18.89727  1       19
siesta:     31.36355  11.40849  18.89727  2       20
siesta:     33.84488  12.11934  18.89727  2       21
siesta:     30.08773  15.84794  18.89727  2       22
siesta:     32.67658  16.56357  18.89727  2       23
siesta:     28.82110  20.31125  18.89727  2       24
siesta:     31.41214  21.03420  18.89727  2       25
siesta:     27.54920  24.75665  18.89727  2       26
siesta:     30.12315  25.48199  18.89727  2       27
siesta:     26.30900  29.22407  18.89727  2       28
siesta:     28.85064  29.91349  18.89727  2       29
siesta:     35.30684  10.63746  18.89727  1       30
siesta:     34.57808  14.69383  18.89727  2       31
siesta:     33.33096  19.18371  18.89727  2       32
siesta:     35.91300  19.92370  18.89727  2       33
siesta:     32.06527  23.64586  18.89727  2       34
siesta:     34.63936  24.39430  18.89727  2       35
siesta:     30.77726  28.10161  18.89727  2       36
siesta:     33.34072  28.79455  18.89727  2       37
siesta:     24.87050  33.07122  18.89727  1       38
siesta:     36.56443  22.53612  18.89727  2       39
siesta:     35.27774  27.02799  18.89727  2       40
siesta:     37.89949  27.76600  18.89727  2       41
siesta:     29.35763  31.93813  18.89727  1       42
siesta:     38.63250  30.34042  18.89727  2       43
siesta:     33.77359  30.83292  18.89727  1       44

siesta: System type = chain     

initatomlists: Number of atoms, orbitals, and projectors:     44   508   648

siesta: ******************** Simulation parameters ****************************
siesta:
siesta: The following are some of the parameters of the simulation.
siesta: A complete list of the parameters used, including default values,
siesta: can be found in file out.fdf
siesta:
redata: Spin configuration                          = collinear
redata: Number of spin components                   = 2
redata: Time-Reversal Symmetry                      = T
redata: Spin-spiral                                 = F
redata: Long output                                 =   F
redata: Number of Atomic Species                    =        2
redata: Charge density info will appear in .RHO file
redata: Write Mulliken Pop.                         = Atomic and Orbital charges
redata: Mesh Cutoff                                 =   400.0000 Ry
redata: Net charge of the system                    =     0.0000 |e|
redata: Min. number of SCF Iter                     =        0
redata: Max. number of SCF Iter                     =     3000
redata: SCF convergence failure will abort job
redata: SCF mix quantity                            = Hamiltonian
redata: Mix DM or H after convergence               =   F
redata: Recompute H after scf cycle                 =   F
redata: Mix DM in first SCF step                    =   T
redata: Write Pulay info on disk                    =   F
redata: New DM Mixing Weight                        =     0.1000
redata: New DM Occupancy tolerance                  = 0.000000000001
redata: No kicks to SCF
redata: DM Mixing Weight for Kicks                  =     0.5000
redata: Require Harris convergence for SCF          =   F
redata: Harris energy tolerance for SCF             =     0.000100 eV
redata: Require DM convergence for SCF              =   T
redata: DM tolerance for SCF                        =     0.000010
redata: Require EDM convergence for SCF             =   F
redata: EDM tolerance for SCF                       =     0.001000 eV
redata: Require H convergence for SCF               =   T
redata: Hamiltonian tolerance for SCF               =     0.001000 eV
redata: Require (free) Energy convergence for SCF   =   F
redata: (free) Energy tolerance for SCF             =     0.000100 eV
redata: Antiferro initial spin density              =   F
redata: Using Saved Data (generic)                  =   F
redata: Use continuation files for DM               =   T
redata: Neglect nonoverlap interactions             =   F
redata: Method of Calculation                       = Diagonalization
redata: Electronic Temperature                      =   299.9869 K
redata: Fix the spin of the system                  =   F
redata: Dynamics option                             = CG coord. optimization
redata: Variable cell                               =   F
redata: Use continuation files for CG               =   F
redata: Max atomic displ per move                   =     0.1058 Ang
redata: Maximum number of CG moves                  =     1000
redata: Force tolerance                             =     0.0020 eV/Ang
mix.SCF: Pulay mixing                            = Pulay
mix.SCF:    Variant                              = stable
mix.SCF:    History steps                        = 7
mix.SCF:    Linear mixing weight                 =     0.100000
mix.SCF:    Mixing weight                        =     0.100000
mix.SCF:    SVD condition                        = 0.1000E-07
mix.SCF: Spin-component mixing                   all
redata: Save all siesta data in one NC              =   F
redata: ***********************************************************************

%block SCF.Mixers
  Pulay
%endblock SCF.Mixers

%block SCF.Mixer.Pulay
  # Mixing method
  method pulay
  variant stable

  # Mixing options
  weight 0.1000
  weight.linear 0.1000
  history 7
%endblock SCF.Mixer.Pulay
 
DM_history_depth set to one: no extrapolation allowed by default for geometry relaxation
Size of DM history Fstack: 1
Total number of electrons:   152.000000
Total ionic charge:   152.000000

* ProcessorY, Blocksize:    4  21


* Orbital distribution balance (max,min):    25    21

k-point displ. along   1 input, could be:     0.00    0.50
 Kpoints in:           51 . Kpoints trimmed:           51

siesta: k-grid: Number of k-points =    51
siesta: k-grid: Cutoff (effective) =    10.000 Ang
siesta: k-grid: Supercell and displacements
siesta: k-grid:  100   0   0      0.000
siesta: k-grid:    0   1   0      0.000
siesta: k-grid:    0   0   1      0.000
 
diag: Algorithm                                     = D&C
diag: Parallel over k                               =   T
diag: Use parallel 2D distribution                  =   T
diag: Parallel block-size                           = 21
diag: Parallel distribution                         =     4 x     6
diag: Used triangular part                          = Lower
diag: Absolute tolerance                            =  0.100E-15
diag: Orthogonalization factor                      =  0.100E-05
diag: Memory factor                                 =  1.0000

superc: Internal auxiliary supercell:     3 x     1 x     1  =       3
superc: Number of atoms, orbitals, and projectors:    132   1524   1944
 
 
ts: **************************************************************
ts: Save H and S matrices                           =    T
ts: Save DM and EDM matrices                        =    F
ts: Fix Hartree potential                           =    F
ts: Only save the overlap matrix S                  =    F
ts: **************************************************************
 
************************ Begin: TS CHECKS AND WARNINGS ************************
************************ End: TS CHECKS AND WARNINGS **************************


                     ====================================
                        Begin CG opt. move =      0
                     ====================================

superc: Internal auxiliary supercell:     3 x     1 x     1  =       3
superc: Number of atoms, orbitals, and projectors:    132   1524   1944

outcell: Unit cell vectors (Ang):
        8.970000    0.000000    0.000000
        0.000000   50.000000    0.000000
        0.000000    0.000000   20.000000

outcell: Cell vector modules (Ang)   :    8.970000   50.000000   20.000000
outcell: Cell angles (23,13,12) (deg):     90.0000     90.0000     90.0000
outcell: Cell volume (Ang**3)        :   8970.0000
<dSpData1D:S at geom step 0
  <sparsity:sparsity for geom step 0
    nrows_g=508 nrows=25 sparsity=.0438 nnzs=11300, refcount: 7>
  <dData1D:(new from dSpData1D) n=11300, refcount: 1>
refcount: 1>
new_DM -- step:     1
Initializing Density Matrix...
 
Attempting to read DM from file... Failed...
DM filled with atomic data (user-defined):
<dSpData2D:DM initialized from atoms
  <sparsity:sparsity for geom step 0
    nrows_g=508 nrows=25 sparsity=.0438 nnzs=11300, refcount: 8>
  <dData2D:DM n=11300 m=2, refcount: 1>
refcount: 1>

initDM: Initial spin polarization (Qup-Qdown) =    0.000000

No. of atoms with KB's overlaping orbs in proc 0. Max # of overlaps:      34     217
New grid distribution:   1
           1       1:   54    1:   80    1:   21
           2       1:   54    1:   80   22:   42
           3       1:   54    1:   80   43:   63
           4       1:   54    1:   80   64:   84
           5       1:   54    1:   80   85:  105
           6       1:   54    1:   80  106:  125
           7       1:   54   81:  160    1:   21
           8       1:   54   81:  160   22:   42
           9       1:   54   81:  160   43:   63
          10       1:   54   81:  160   64:   84
          11       1:   54   81:  160   85:  105
          12       1:   54   81:  160  106:  125
          13       1:   54  161:  240    1:   21
          14       1:   54  161:  240   22:   42
          15       1:   54  161:  240   43:   63
          16       1:   54  161:  240   64:   84
          17       1:   54  161:  240   85:  105
          18       1:   54  161:  240  106:  125
          19       1:   54  241:  320    1:   21
          20       1:   54  241:  320   22:   42
          21       1:   54  241:  320   43:   63
          22       1:   54  241:  320   64:   84
          23       1:   54  241:  320   85:  105
          24       1:   54  241:  320  106:  125

InitMesh: MESH =   108 x   640 x   250 =    17280000
InitMesh: (bp) =    54 x   320 x   125 =     2160000
InitMesh: Mesh cutoff (required, used) =   400.000   400.649 Ry
ExtMesh (bp) on 0 =   118 x   148 x    89 =     1554296
New grid distribution:   2
           1       1:   54    1:   44    1:   63
           2       1:   54   45:   56    1:   58
           3       1:   54   73:   78    1:   63
           4       1:   54   45:   56   59:   63
           5       1:   54    1:   44   64:  125
           6       1:   54   45:   56   68:  125
           7       1:   54   90:   95    1:   63
           8       1:   54   45:   56   64:   67
           9       1:   54   79:   89    1:   59
          10       1:   54   96:  320   64:   67
          11       1:   54   73:   78   64:  125
          12       1:   54   62:   72   60:   63
          13       1:   54   96:  320    1:   58
          14       1:   54   62:   72    1:   59
          15       1:   54   90:   95   64:  125
          16       1:   54   79:   89   60:   63
          17       1:   54   96:  320   68:  125
          18       1:   54   62:   72   68:  125
          19       1:   54   57:   61    1:   63
          20       1:   54   79:   89   64:   67
          21       1:   54   96:  320   59:   63
          22       1:   54   79:   89   68:  125
          23       1:   54   57:   61   64:  125
          24       1:   54   62:   72   64:   67
New grid distribution:   3
           1       1:   54    1:   31    1:   63
           2       1:   54   57:   73    1:   55
           3       1:   54   49:   56    1:   63
           4       1:   54   32:   48   64:   71
           5       1:   54    1:   31   64:  125
           6       1:   54   57:   73   56:   63
           7       1:   54   82:   98    1:   55
           8       1:   54   99:  106    1:   63
           9       1:   54   32:   48    1:   55
          10       1:   54  107:  320   64:   70
          11       1:   54   74:   81    1:   63
          12       1:   54   32:   48   56:   63
          13       1:   54  107:  320    1:   56
          14       1:   54   57:   73   72:  125
          15       1:   54   74:   81   64:  125
          16       1:   54   82:   98   56:   63
          17       1:   54  107:  320   71:  125
          18       1:   54   82:   98   72:  125
          19       1:   54   49:   56   64:  125
          20       1:   54   82:   98   64:   71
          21       1:   54  107:  320   57:   63
          22       1:   54   32:   48   72:  125
          23       1:   54   99:  106   64:  125
          24       1:   54   57:   73   64:   71
Setting up quadratic distribution...
ExtMesh (bp) on 0 =   118 x   112 x   131 =     1731296
PhiOnMesh: Number of (b)points on node 0 =               149688
PhiOnMesh: nlist on node 0 =               467597

stepf: Fermi-Dirac step function

siesta: Program's energy decomposition (eV):
siesta: Ebs     =     -1720.987080
siesta: Eions   =      7413.521051
siesta: Ena     =       743.579973
siesta: Ekin    =      4264.030922
siesta: Enl     =     -1352.991082
siesta: Eso     =         0.000000
siesta: Eldau   =         0.000000
siesta: DEna    =      -136.474087
siesta: DUscf   =        15.587919
siesta: DUext   =         0.000000
siesta: Enegf   =         0.000000
siesta: Exc     =     -1811.239182
siesta: eta*DQ  =         0.000000
siesta: Emadel  =         0.000000
siesta: Emeta   =         0.000000
siesta: Emolmec =         0.000000
siesta: Ekinion =         0.000000
siesta: Eharris =     -5717.350612
siesta: Etot    =     -5691.026589
siesta: FreeEng =     -5691.028250

        iscf     Eharris(eV)        E_KS(eV)     FreeEng(eV)     dDmax    Ef(eV) dHmax(eV)
   scf:    1    -5717.350612    -5691.026589    -5691.028250  0.967888 -5.024831  5.212265
timer: Routine,Calls,Time,% = IterSCF        1       6.379  66.28
   scf:    2    -5692.760271    -5691.937374    -5691.938961  0.008790 -4.738902  4.140694
   scf:    3    -5694.144103    -5693.362089    -5693.363357  0.032848 -3.735238  1.914847
   scf:    4    -5693.731765    -5693.580610    -5693.581679  0.018190 -3.367194  0.684663
   scf:    5    -5693.678425    -5693.641962    -5693.642946  0.007327 -3.340333  0.359846
   scf:    6    -5693.698260    -5693.674371    -5693.675161  0.005512 -3.311883  0.255295
   scf:    7    -5693.678614    -5693.677439    -5693.678179  0.002327 -3.336892  0.195787
   scf:    8    -5693.686757    -5693.682439    -5693.683073  0.003542 -3.321703  0.134886
   scf:    9    -5693.686492    -5693.684455    -5693.685011  0.001680 -3.324095  0.081569
   scf:   10    -5693.686085    -5693.685252    -5693.685771  0.000978 -3.326498  0.055240
   scf:   11    -5693.686445    -5693.685821    -5693.686307  0.000772 -3.327581  0.042324
   scf:   12    -5693.687185    -5693.686439    -5693.686881  0.001258 -3.328442  0.023222
   scf:   13    -5693.686982    -5693.686691    -5693.687107  0.000820 -3.327544  0.016826
   scf:   14    -5693.686828    -5693.686758    -5693.687165  0.000269 -3.327476  0.016294
   scf:   15    -5693.687456    -5693.687053    -5693.687419  0.001401 -3.327589  0.011686
   scf:   16    -5693.687176    -5693.687112    -5693.687469  0.000311 -3.327578  0.010815
   scf:   17    -5693.687572    -5693.687305    -5693.687632  0.001088 -3.327378  0.008812
   scf:   18    -5693.687477    -5693.687384    -5693.687697  0.000454 -3.327228  0.008454
   scf:   19    -5693.687657    -5693.687502    -5693.687795  0.000700 -3.326991  0.008171
   scf:   20    -5693.687725    -5693.687599    -5693.687875  0.000612 -3.326790  0.007799
   scf:   21    -5693.687997    -5693.687751    -5693.687999  0.001082 -3.326497  0.007972
   scf:   22    -5693.688089    -5693.687873    -5693.688094  0.001068 -3.326302  0.007655
   scf:   23    -5693.688077    -5693.687947    -5693.688149  0.000801 -3.326212  0.006388
   scf:   24    -5693.688122    -5693.688005    -5693.688188  0.000836 -3.326067  0.005210
   scf:   25    -5693.688027    -5693.688015    -5693.688195  0.000189 -3.326015  0.004764
   scf:   26    -5693.688107    -5693.688044    -5693.688212  0.000755 -3.325800  0.002206
   scf:   27    -5693.688044    -5693.688043    -5693.688214  0.000152 -3.325761  0.001225
   scf:   28    -5693.688057    -5693.688048    -5693.688216  0.000224 -3.325705  0.000949
   scf:   29    -5693.688051    -5693.688050    -5693.688216  0.000048 -3.325662  0.000795
   scf:   30    -5693.688054    -5693.688051    -5693.688216  0.000086 -3.325618  0.000632
   scf:   31    -5693.688049    -5693.688050    -5693.688216  0.000082 -3.325614  0.000291
   scf:   32    -5693.688052    -5693.688051    -5693.688216  0.000048 -3.325603  0.000136
   scf:   33    -5693.688051    -5693.688051    -5693.688216  0.000010 -3.325607  0.000130

SCF Convergence by DM+H criterion
max |DM_out - DM_in|         :     0.0000096337
max |H_out - H_in|      (eV) :     0.0001298289
SCF cycle converged after 33 iterations

Using DM_out to compute the final energy and forces
No. of atoms with KB's overlaping orbs in proc 0. Max # of overlaps:      34     217

siesta: E_KS(eV) =            -5693.6881

siesta: E_KS - E_eggbox =     -5693.6881

siesta: Total spin polarization (Qup-Qdown) =    0.000215

siesta: Atomic forces (eV/Ang):
----------------------------------------
   Tot   -0.014103    0.040240   -0.000000
----------------------------------------
   Max    4.798912
   Res    0.834969    sqrt( Sum f_i^2 / 3N )
----------------------------------------
   Max    4.798912    constrained

Stress-tensor-Voigt (kbar):       -2.74       -5.55        0.00        0.24       -0.00        0.00
(Free)E + p*V (eV/cell)    -5678.2336
Target enthalpy (eV/cell)    -5693.6882
 
mulliken: Atomic and Orbital Populations:

mulliken: Spin UP 

Species: H.mpn               
Atom  Qatom  Qorb
               1s      1s      1Ppy    1Ppz    1Ppx    
   1  0.619   0.419   0.150   0.022   0.016   0.011
   3  0.620   0.429   0.143   0.022   0.016   0.011
   9  0.620   0.432   0.139   0.021   0.016   0.012
  19  0.624   0.414   0.157   0.017   0.019   0.018
  30  0.618   0.421   0.146   0.016   0.017   0.018
  38  0.620   0.429   0.139   0.021   0.019   0.012
  42  0.619   0.425   0.142   0.022   0.019   0.011
  44  0.617   0.414   0.151   0.022   0.018   0.011

Species: C.mpn               
Atom  Qatom  Qorb
               2s      2s      2py     2pz     2px     2py     2pz     2px     
               2Pdxy   2Pdyz   2Pdz2   2Pdxz   2Pdx2-y2
   2  1.998   0.247   0.256   0.226   0.400   0.235   0.250   0.078   0.236
              0.020   0.014   0.001   0.013   0.022
   4  1.869   0.193   0.278   0.076   0.373   0.244   0.349   0.060   0.242
              0.015   0.005   0.001   0.016   0.021
   5  1.977   0.224   0.266   0.210   0.377   0.208   0.261   0.093   0.267
              0.021   0.014   0.001   0.014   0.021
   6  1.986   0.250   0.253   0.235   0.387   0.231   0.242   0.071   0.245
              0.022   0.014   0.001   0.015   0.020
   7  2.007   0.233   0.263   0.227   0.389   0.224   0.254   0.087   0.257
              0.021   0.015   0.001   0.015   0.021
   8  2.018   0.250   0.255   0.236   0.409   0.239   0.248   0.076   0.234
              0.020   0.015   0.001   0.013   0.021
  10  1.864   0.193   0.278   0.074   0.373   0.246   0.348   0.056   0.241
              0.015   0.004   0.001   0.016   0.020
  11  1.977   0.226   0.265   0.210   0.377   0.203   0.260   0.092   0.272
              0.021   0.014   0.001   0.015   0.021
  12  1.992   0.237   0.260   0.222   0.381   0.222   0.257   0.082   0.257
              0.021   0.015   0.001   0.015   0.021
  13  2.010   0.233   0.263   0.225   0.390   0.224   0.257   0.086   0.258
              0.021   0.015   0.001   0.015   0.021
  14  1.991   0.234   0.261   0.224   0.379   0.226   0.256   0.082   0.255
              0.021   0.016   0.001   0.016   0.021
  15  2.010   0.234   0.263   0.225   0.393   0.224   0.256   0.086   0.256
              0.021   0.015   0.001   0.015   0.021
  16  1.991   0.248   0.254   0.238   0.386   0.229   0.241   0.073   0.248
              0.021   0.015   0.001   0.016   0.021
  17  2.009   0.235   0.262   0.223   0.393   0.224   0.258   0.087   0.256
              0.021   0.014   0.001   0.014   0.021
  18  1.928   0.199   0.278   0.088   0.441   0.241   0.338   0.061   0.230
              0.014   0.004   0.001   0.013   0.019
  20  1.867   0.185   0.281   0.078   0.377   0.231   0.346   0.067   0.248
              0.015   0.004   0.001   0.016   0.019
  21  1.905   0.181   0.285   0.154   0.402   0.151   0.298   0.075   0.306
              0.022   0.009   0.001   0.009   0.013
  22  1.988   0.238   0.259   0.223   0.378   0.224   0.257   0.081   0.254
              0.021   0.015   0.002   0.015   0.021
  23  2.008   0.233   0.263   0.223   0.391   0.224   0.257   0.086   0.259
              0.021   0.015   0.001   0.014   0.022
  24  1.987   0.234   0.261   0.225   0.377   0.224   0.256   0.080   0.255
              0.021   0.016   0.001   0.016   0.021
  25  2.007   0.234   0.262   0.226   0.391   0.224   0.256   0.085   0.256
              0.021   0.015   0.001   0.015   0.021
  26  1.991   0.234   0.261   0.225   0.377   0.223   0.255   0.083   0.258
              0.021   0.016   0.001   0.016   0.021
  27  2.008   0.236   0.262   0.221   0.393   0.223   0.259   0.086   0.257
              0.021   0.014   0.001   0.015   0.021
  28  1.959   0.226   0.262   0.210   0.360   0.206   0.259   0.089   0.269
              0.021   0.015   0.001   0.020   0.022
  29  1.963   0.191   0.284   0.076   0.446   0.247   0.348   0.074   0.242
              0.015   0.004   0.000   0.015   0.019
  31  1.954   0.253   0.250   0.222   0.372   0.241   0.250   0.068   0.228
              0.020   0.015   0.001   0.014   0.021
  32  1.985   0.235   0.260   0.225   0.375   0.225   0.255   0.081   0.254
              0.021   0.016   0.001   0.016   0.021
  33  2.009   0.246   0.257   0.239   0.402   0.230   0.242   0.076   0.247
              0.021   0.014   0.001   0.014   0.020
  34  1.992   0.235   0.261   0.226   0.379   0.224   0.254   0.082   0.256
              0.021   0.015   0.001   0.016   0.021
  35  2.011   0.235   0.262   0.222   0.395   0.227   0.257   0.086   0.255
              0.021   0.015   0.001   0.015   0.021
  36  1.959   0.226   0.262   0.210   0.361   0.209   0.259   0.088   0.264
              0.021   0.016   0.001   0.020   0.021
  37  1.961   0.191   0.283   0.079   0.441   0.244   0.349   0.075   0.244
              0.015   0.004   0.001   0.015   0.020
  39  1.993   0.252   0.253   0.237   0.392   0.238   0.246   0.070   0.233
              0.020   0.016   0.001   0.014   0.021
  40  1.972   0.232   0.260   0.217   0.371   0.221   0.255   0.083   0.255
              0.020   0.016   0.001   0.019   0.022
  41  2.018   0.245   0.258   0.222   0.418   0.232   0.247   0.083   0.243
              0.021   0.014   0.001   0.015   0.020
  43  1.875   0.181   0.283   0.133   0.393   0.169   0.317   0.058   0.284
              0.022   0.010   0.001   0.010   0.012

mulliken: Qtot =       76.000

mulliken: Spin DOWN 

Species: H.mpn               
Atom  Qatom  Qorb
               1s      1s      1Ppy    1Ppz    1Ppx    
   1  0.617   0.415   0.150   0.022   0.019   0.011
   3  0.619   0.425   0.142   0.022   0.019   0.011
   9  0.620   0.430   0.139   0.021   0.018   0.012
  19  0.624   0.413   0.157   0.017   0.020   0.018
  30  0.618   0.422   0.146   0.016   0.017   0.018
  38  0.621   0.432   0.139   0.021   0.017   0.012
  42  0.620   0.429   0.143   0.022   0.016   0.011
  44  0.618   0.418   0.151   0.022   0.016   0.012

Species: C.mpn               
Atom  Qatom  Qorb
               2s      2s      2py     2pz     2px     2py     2pz     2px     
               2Pdxy   2Pdyz   2Pdz2   2Pdxz   2Pdx2-y2
   2  1.976   0.249   0.252   0.227   0.382   0.236   0.248   0.073   0.233
              0.020   0.016   0.001   0.016   0.022
   4  1.958   0.191   0.283   0.078   0.438   0.245   0.349   0.076   0.244
              0.015   0.004   0.000   0.015   0.021
   5  1.959   0.226   0.262   0.211   0.362   0.209   0.259   0.089   0.264
              0.021   0.015   0.001   0.020   0.021
   6  2.015   0.248   0.256   0.235   0.408   0.231   0.243   0.077   0.246
              0.022   0.014   0.001   0.014   0.020
   7  1.991   0.234   0.261   0.227   0.378   0.224   0.254   0.083   0.256
              0.021   0.015   0.001   0.016   0.021
   8  1.987   0.252   0.253   0.236   0.387   0.239   0.247   0.069   0.233
              0.020   0.016   0.001   0.014   0.021
  10  1.961   0.191   0.284   0.076   0.444   0.247   0.348   0.074   0.242
              0.015   0.004   0.000   0.015   0.020
  11  1.959   0.228   0.262   0.211   0.362   0.204   0.258   0.088   0.269
              0.021   0.014   0.001   0.019   0.021
  12  2.007   0.236   0.261   0.222   0.392   0.222   0.258   0.086   0.257
              0.021   0.014   0.001   0.015   0.021
  13  1.991   0.234   0.261   0.224   0.377   0.224   0.256   0.082   0.257
              0.021   0.016   0.001   0.016   0.021
  14  2.009   0.233   0.263   0.224   0.391   0.226   0.257   0.086   0.256
              0.021   0.015   0.001   0.015   0.021
  15  1.990   0.235   0.261   0.225   0.379   0.224   0.256   0.081   0.255
              0.021   0.016   0.001   0.016   0.021
  16  2.012   0.247   0.257   0.237   0.402   0.228   0.243   0.077   0.250
              0.021   0.014   0.001   0.014   0.021
  17  1.989   0.236   0.259   0.223   0.378   0.224   0.257   0.083   0.255
              0.021   0.015   0.001   0.015   0.021
  18  1.856   0.201   0.274   0.086   0.386   0.241   0.337   0.050   0.228
              0.014   0.004   0.001   0.014   0.019
  20  1.918   0.184   0.284   0.079   0.415   0.231   0.346   0.076   0.249
              0.015   0.004   0.000   0.015   0.019
  21  1.883   0.183   0.282   0.153   0.384   0.151   0.296   0.071   0.305
              0.022   0.011   0.001   0.011   0.013
  22  2.011   0.237   0.261   0.223   0.395   0.224   0.258   0.086   0.255
              0.021   0.014   0.001   0.014   0.021
  23  1.991   0.235   0.260   0.223   0.377   0.224   0.256   0.082   0.257
              0.021   0.016   0.001   0.016   0.022
  24  2.013   0.233   0.263   0.225   0.395   0.224   0.257   0.086   0.256
              0.021   0.015   0.001   0.015   0.021
  25  1.993   0.235   0.261   0.226   0.381   0.224   0.255   0.082   0.255
              0.021   0.016   0.001   0.016   0.021
  26  2.009   0.233   0.263   0.226   0.389   0.223   0.256   0.087   0.259
              0.021   0.015   0.001   0.015   0.021
  27  1.990   0.237   0.260   0.221   0.380   0.223   0.258   0.082   0.257
              0.021   0.015   0.002   0.015   0.021
  28  1.978   0.224   0.266   0.209   0.376   0.205   0.261   0.093   0.272
              0.021   0.014   0.001   0.015   0.022
  29  1.860   0.194   0.277   0.074   0.371   0.246   0.348   0.055   0.241
              0.015   0.004   0.001   0.016   0.020
  31  2.021   0.250   0.255   0.222   0.421   0.241   0.252   0.081   0.230
              0.020   0.014   0.001   0.013   0.021
  32  2.015   0.233   0.263   0.225   0.396   0.225   0.256   0.088   0.255
              0.021   0.015   0.001   0.015   0.021
  33  1.993   0.248   0.255   0.239   0.390   0.230   0.241   0.073   0.246
              0.021   0.015   0.001   0.016   0.020
  34  2.007   0.234   0.262   0.227   0.390   0.224   0.255   0.086   0.257
              0.021   0.015   0.001   0.015   0.021
  35  1.988   0.236   0.260   0.222   0.378   0.227   0.256   0.081   0.254
              0.021   0.016   0.001   0.015   0.021
  36  1.978   0.223   0.266   0.210   0.378   0.208   0.261   0.092   0.267
              0.021   0.014   0.001   0.014   0.022
  37  1.867   0.193   0.278   0.077   0.371   0.243   0.348   0.058   0.243
              0.015   0.005   0.001   0.016   0.020
  39  2.011   0.250   0.255   0.237   0.405   0.238   0.247   0.074   0.234
              0.020   0.015   0.001   0.013   0.021
  40  1.995   0.229   0.264   0.216   0.390   0.221   0.257   0.089   0.258
              0.020   0.014   0.001   0.014   0.022
  41  1.952   0.248   0.252   0.222   0.369   0.232   0.245   0.069   0.241
              0.021   0.014   0.001   0.015   0.020
  43  1.907   0.180   0.286   0.134   0.418   0.169   0.318   0.063   0.286
              0.022   0.009   0.001   0.008   0.012

mulliken: Qtot =       76.000

                     ====================================
                        Begin CG opt. move =      1
                     ====================================

superc: Internal auxiliary supercell:     3 x     1 x     1  =       3
superc: Number of atoms, orbitals, and projectors:    132   1524   1944

outcell: Unit cell vectors (Ang):
        8.970000    0.000000    0.000000
        0.000000   50.000000    0.000000
        0.000000    0.000000   20.000000

outcell: Cell vector modules (Ang)   :    8.970000   50.000000   20.000000
outcell: Cell angles (23,13,12) (deg):     90.0000     90.0000     90.0000
outcell: Cell volume (Ang**3)        :   8970.0000
<dSpData1D:S at geom step 1
  <sparsity:sparsity for geom step 1
    nrows_g=508 nrows=25 sparsity=.0438 nnzs=11300, refcount: 7>
  <dData1D:(new from dSpData1D) n=11300, refcount: 1>
refcount: 1>
new_DM -- step:     2
Re-using DM from previous geometries...
Number of DMs in history: 1
 DM extrapolation coefficients: 
1   1.00000
New DM after history re-use:
<dSpData2D:SpM extrapolated using coords
  <sparsity:sparsity for geom step 1
    nrows_g=508 nrows=25 sparsity=.0438 nnzs=11300, refcount: 8>
  <dData2D:(temp array for extrapolation) n=11300 m=2, refcount: 1>
refcount: 1>
No. of atoms with KB's overlaping orbs in proc 0. Max # of overlaps:      34     217
New grid distribution:   1
           1       1:   54    1:   80    1:   21
           2       1:   54    1:   80   22:   42
           3       1:   54    1:   80   43:   63
           4       1:   54    1:   80   64:   84
           5       1:   54    1:   80   85:  105
           6       1:   54    1:   80  106:  125
           7       1:   54   81:  160    1:   21
           8       1:   54   81:  160   22:   42
           9       1:   54   81:  160   43:   63
          10       1:   54   81:  160   64:   84
          11       1:   54   81:  160   85:  105
          12       1:   54   81:  160  106:  125
          13       1:   54  161:  240    1:   21
          14       1:   54  161:  240   22:   42
          15       1:   54  161:  240   43:   63
          16       1:   54  161:  240   64:   84
          17       1:   54  161:  240   85:  105
          18       1:   54  161:  240  106:  125
          19       1:   54  241:  320    1:   21
          20       1:   54  241:  320   22:   42
          21       1:   54  241:  320   43:   63
          22       1:   54  241:  320   64:   84
          23       1:   54  241:  320   85:  105
          24       1:   54  241:  320  106:  125

InitMesh: MESH =   108 x   640 x   250 =    17280000
InitMesh: (bp) =    54 x   320 x   125 =     2160000
InitMesh: Mesh cutoff (required, used) =   400.000   400.649 Ry
ExtMesh (bp) on 0 =   118 x   148 x    89 =     1554296
New grid distribution:   2
           1       1:   54    1:   44    1:   63
           2       1:   54   45:   56    1:   58
           3       1:   54   73:   78    1:   63
           4       1:   54   45:   56   59:   63
           5       1:   54    1:   44   64:  125
           6       1:   54   45:   56   68:  125
           7       1:   54   90:   95    1:   63
           8       1:   54   45:   56   64:   67
           9       1:   54   79:   89    1:   59
          10       1:   54   96:  320   64:   67
          11       1:   54   73:   78   64:  125
          12       1:   54   62:   72   60:   63
          13       1:   54   96:  320    1:   58
          14       1:   54   62:   72    1:   59
          15       1:   54   90:   95   64:  125
          16       1:   54   79:   89   60:   63
          17       1:   54   96:  320   68:  125
          18       1:   54   62:   72   68:  125
          19       1:   54   57:   61    1:   63
          20       1:   54   79:   89   64:   67
          21       1:   54   96:  320   59:   63
          22       1:   54   79:   89   68:  125
          23       1:   54   57:   61   64:  125
          24       1:   54   62:   72   64:   67
New grid distribution:   3
           1       1:   54    1:   31    1:   63
           2       1:   54   57:   73    1:   55
           3       1:   54   74:   82    1:   63
           4       1:   54   32:   48   64:   71
           5       1:   54    1:   31   64:  125
           6       1:   54   32:   48    1:   55
           7       1:   54   99:  107    1:   63
           8       1:   54   57:   73   56:   63
           9       1:   54  108:  320   57:   63
          10       1:   54   57:   73   72:  125
          11       1:   54   49:   56    1:   63
          12       1:   54   32:   48   56:   63
          13       1:   54  108:  320    1:   56
          14       1:   54   82:   98   72:  125
          15       1:   54   74:   81   64:  125
          16       1:   54   82:   98   64:   71
          17       1:   54  107:  320   71:  125
          18       1:   54   32:   48   72:  125
          19       1:   54   49:   56   64:  125
          20       1:   54   57:   73   64:   71
          21       1:   54   83:   98    1:   55
          22       1:   54  107:  320   64:   70
          23       1:   54   99:  106   64:  125
          24       1:   54   83:   98   56:   63
Setting up quadratic distribution...
ExtMesh (bp) on 0 =   118 x   112 x   131 =     1731296
PhiOnMesh: Number of (b)points on node 0 =               149688
PhiOnMesh: nlist on node 0 =               468548

        iscf     Eharris(eV)        E_KS(eV)     FreeEng(eV)     dDmax    Ef(eV) dHmax(eV)
   scf:    1    -5693.567226    -5693.939703    -5693.939968  0.028268 -3.328785  1.874084
   scf:    2    -5676.057872    -5688.510703    -5688.510703  0.082487 -3.318153  8.311093
   scf:    3    -5695.052372    -5694.227129    -5694.227309  0.072619 -3.323873  0.442649
   scf:    4    -5694.034354    -5694.190912    -5694.191170  0.011268 -3.332413  0.871966
   scf:    5    -5694.279006    -5694.243059    -5694.243245  0.004680 -3.330865  0.435729
   scf:    6    -5694.238105    -5694.257747    -5694.257917  0.005575 -3.329954  0.212786
   scf:    7    -5694.262849    -5694.261887    -5694.262049  0.001802 -3.331290  0.035036
   scf:    8    -5694.261308    -5694.261754    -5694.261916  0.000596 -3.331826  0.050820
   scf:    9    -5694.262021    -5694.261976    -5694.262138  0.000473 -3.331636  0.009046
   scf:   10    -5694.261997    -5694.261987    -5694.262148  0.000170 -3.331573  0.005724
   scf:   11    -5694.261994    -5694.261990    -5694.262151  0.000082 -3.331574  0.004576
   scf:   12    -5694.261998    -5694.261994    -5694.262155  0.000114 -3.331638  0.003108
   scf:   13    -5694.262000    -5694.261997    -5694.262157  0.000131 -3.331698  0.001402
   scf:   14    -5694.261998    -5694.261997    -5694.262158  0.000043 -3.331706  0.000981
   scf:   15    -5694.261998    -5694.261998    -5694.262158  0.000052 -3.331704  0.000545
   scf:   16    -5694.261998    -5694.261998    -5694.262158  0.000009 -3.331702  0.000489

SCF Convergence by DM+H criterion
max |DM_out - DM_in|         :     0.0000092375
max |H_out - H_in|      (eV) :     0.0004894738
SCF cycle converged after 16 iterations

Using DM_out to compute the final energy and forces
No. of atoms with KB's overlaping orbs in proc 0. Max # of overlaps:      34     217

siesta: E_KS(eV) =            -5694.2620

siesta: Total spin polarization (Qup-Qdown) =    0.000022

siesta: Atomic forces (eV/Ang):
----------------------------------------
   Tot   -0.035207    0.039892   -0.000000
----------------------------------------
   Max    1.092675
   Res    0.302411    sqrt( Sum f_i^2 / 3N )
----------------------------------------
   Max    1.092675    constrained

Stress-tensor-Voigt (kbar):       -2.34       -5.00        0.00       -0.06       -0.00        0.00
(Free)E + p*V (eV/cell)    -5680.5686
Target enthalpy (eV/cell)    -5694.2622
 
mulliken: Atomic and Orbital Populations:

mulliken: Spin UP 

Species: H.mpn               
Atom  Qatom  Qorb
               1s      1s      1Ppy    1Ppz    1Ppx    
   1  0.620   0.417   0.153   0.022   0.016   0.012
   3  0.621   0.428   0.145   0.022   0.016   0.011
   9  0.621   0.430   0.141   0.021   0.017   0.012
  19  0.617   0.421   0.146   0.017   0.016   0.017
  30  0.619   0.420   0.147   0.017   0.018   0.018
  38  0.619   0.431   0.136   0.021   0.018   0.012
  42  0.620   0.424   0.144   0.022   0.019   0.011
  44  0.618   0.413   0.152   0.022   0.019   0.012

Species: C.mpn               
Atom  Qatom  Qorb
               2s      2s      2py     2pz     2px     2py     2pz     2px     
               2Pdxy   2Pdyz   2Pdz2   2Pdxz   2Pdx2-y2
   2  1.997   0.243   0.258   0.226   0.400   0.229   0.248   0.079   0.245
              0.020   0.014   0.001   0.013   0.021
   4  1.863   0.194   0.277   0.075   0.374   0.247   0.349   0.054   0.237
              0.015   0.004   0.001   0.015   0.020
   5  1.978   0.226   0.265   0.210   0.379   0.211   0.260   0.091   0.264
              0.021   0.014   0.001   0.014   0.021
   6  1.988   0.247   0.255   0.232   0.386   0.229   0.245   0.074   0.248
              0.021   0.015   0.001   0.015   0.021
   7  2.007   0.237   0.261   0.230   0.392   0.226   0.252   0.084   0.253
              0.021   0.015   0.001   0.015   0.021
   8  2.017   0.246   0.257   0.235   0.407   0.232   0.247   0.078   0.244
              0.021   0.014   0.001   0.014   0.021
  10  1.862   0.193   0.278   0.071   0.374   0.248   0.351   0.055   0.239
              0.015   0.004   0.001   0.015   0.020
  11  1.977   0.227   0.264   0.209   0.378   0.206   0.260   0.091   0.270
              0.021   0.014   0.001   0.015   0.021
  12  1.992   0.237   0.260   0.222   0.381   0.224   0.258   0.082   0.256
              0.021   0.015   0.001   0.015   0.021
  13  2.009   0.233   0.263   0.225   0.390   0.224   0.257   0.086   0.258
              0.021   0.015   0.001   0.015   0.021
  14  1.992   0.238   0.259   0.228   0.382   0.226   0.252   0.080   0.253
              0.021   0.015   0.001   0.016   0.021
  15  2.012   0.234   0.263   0.226   0.394   0.225   0.256   0.086   0.255
              0.021   0.015   0.001   0.015   0.021
  16  1.991   0.246   0.255   0.234   0.384   0.228   0.245   0.074   0.250
              0.021   0.015   0.001   0.016   0.021
  17  2.012   0.240   0.260   0.226   0.398   0.226   0.256   0.084   0.252
              0.021   0.014   0.001   0.014   0.021
  18  1.921   0.191   0.281   0.090   0.422   0.230   0.335   0.071   0.247
              0.016   0.004   0.000   0.014   0.019
  20  1.866   0.185   0.281   0.076   0.380   0.233   0.349   0.064   0.244
              0.015   0.004   0.001   0.015   0.019
  21  1.905   0.184   0.284   0.155   0.407   0.153   0.296   0.070   0.303
              0.022   0.009   0.001   0.009   0.013
  22  1.988   0.238   0.259   0.223   0.379   0.225   0.257   0.081   0.254
              0.021   0.015   0.002   0.015   0.021
  23  2.009   0.236   0.261   0.227   0.393   0.225   0.253   0.084   0.257
              0.021   0.014   0.001   0.014   0.022
  24  1.989   0.235   0.261   0.225   0.378   0.224   0.255   0.081   0.255
              0.021   0.016   0.001   0.016   0.021
  25  2.008   0.234   0.262   0.226   0.392   0.225   0.256   0.085   0.255
              0.021   0.015   0.001   0.015   0.021
  26  1.991   0.234   0.261   0.226   0.377   0.224   0.255   0.082   0.257
              0.021   0.016   0.001   0.016   0.021
  27  2.008   0.236   0.261   0.221   0.392   0.224   0.259   0.086   0.257
              0.021   0.014   0.001   0.015   0.021
  28  1.959   0.233   0.259   0.215   0.366   0.207   0.254   0.084   0.265
              0.021   0.014   0.001   0.019   0.021
  29  1.960   0.191   0.284   0.073   0.447   0.249   0.351   0.072   0.239
              0.015   0.004   0.000   0.015   0.020
  31  1.955   0.248   0.252   0.221   0.370   0.233   0.249   0.070   0.239
              0.021   0.014   0.001   0.015   0.021
  32  1.986   0.239   0.259   0.228   0.379   0.228   0.253   0.077   0.250
              0.021   0.016   0.001   0.015   0.021
  33  2.009   0.243   0.258   0.236   0.400   0.228   0.245   0.078   0.249
              0.021   0.014   0.001   0.014   0.021
  34  1.992   0.235   0.261   0.227   0.379   0.224   0.254   0.082   0.255
              0.021   0.015   0.001   0.016   0.021
  35  2.012   0.238   0.260   0.225   0.398   0.227   0.254   0.084   0.253
              0.021   0.014   0.001   0.015   0.021
  36  1.959   0.227   0.262   0.210   0.362   0.212   0.258   0.087   0.262
              0.021   0.015   0.001   0.020   0.021
  37  1.961   0.190   0.284   0.076   0.444   0.247   0.352   0.073   0.241
              0.015   0.004   0.000   0.015   0.020
  39  1.993   0.247   0.255   0.236   0.390   0.232   0.245   0.073   0.243
              0.021   0.015   0.001   0.015   0.021
  40  1.973   0.237   0.258   0.219   0.375   0.225   0.253   0.080   0.249
              0.020   0.016   0.001   0.018   0.022
  41  2.020   0.242   0.259   0.222   0.416   0.229   0.250   0.085   0.246
              0.021   0.014   0.001   0.015   0.021
  43  1.884   0.190   0.279   0.149   0.387   0.162   0.298   0.068   0.294
              0.022   0.011   0.001   0.011   0.013

mulliken: Qtot =       76.000

mulliken: Spin DOWN 

Species: H.mpn               
Atom  Qatom  Qorb
               1s      1s      1Ppy    1Ppz    1Ppx    
   1  0.618   0.413   0.152   0.022   0.019   0.012
   3  0.620   0.424   0.144   0.022   0.019   0.011
   9  0.620   0.428   0.140   0.021   0.019   0.012
  19  0.617   0.420   0.146   0.017   0.017   0.017
  30  0.619   0.421   0.147   0.017   0.017   0.018
  38  0.620   0.433   0.137   0.021   0.016   0.012
  42  0.621   0.428   0.144   0.022   0.016   0.011
  44  0.619   0.416   0.153   0.022   0.016   0.012

Species: C.mpn               
Atom  Qatom  Qorb
               2s      2s      2py     2pz     2px     2py     2pz     2px     
               2Pdxy   2Pdyz   2Pdz2   2Pdxz   2Pdx2-y2
   2  1.974   0.246   0.254   0.227   0.381   0.230   0.246   0.074   0.242
              0.020   0.016   0.001   0.017   0.021
   4  1.961   0.192   0.283   0.077   0.447   0.248   0.350   0.071   0.239
              0.015   0.004   0.000   0.015   0.020
   5  1.959   0.228   0.261   0.210   0.363   0.212   0.258   0.087   0.261
              0.021   0.015   0.001   0.020   0.021
   6  2.014   0.245   0.257   0.232   0.405   0.229   0.246   0.079   0.249
              0.021   0.014   0.001   0.014   0.021
   7  1.992   0.238   0.259   0.230   0.381   0.226   0.251   0.080   0.252
              0.021   0.015   0.001   0.016   0.021
   8  1.986   0.247   0.255   0.235   0.384   0.232   0.246   0.072   0.243
              0.021   0.015   0.001   0.015   0.021
  10  1.959   0.190   0.284   0.073   0.445   0.249   0.352   0.072   0.240
              0.015   0.004   0.000   0.015   0.020
  11  1.959   0.229   0.261   0.210   0.363   0.207   0.259   0.087   0.267
              0.021   0.015   0.001   0.019   0.021
  12  2.007   0.236   0.261   0.222   0.392   0.224   0.258   0.086   0.257
              0.021   0.014   0.001   0.015   0.021
  13  1.991   0.234   0.261   0.225   0.377   0.224   0.256   0.082   0.257
              0.021   0.016   0.001   0.016   0.021
  14  2.009   0.236   0.261   0.228   0.394   0.226   0.253   0.083   0.254
              0.021   0.015   0.001   0.014   0.021
  15  1.989   0.235   0.261   0.226   0.378   0.225   0.256   0.081   0.254
              0.021   0.016   0.001   0.016   0.021
  16  2.010   0.244   0.258   0.234   0.399   0.227   0.246   0.078   0.252
              0.021   0.014   0.001   0.014   0.021
  17  1.988   0.241   0.257   0.226   0.381   0.226   0.255   0.079   0.251
              0.021   0.014   0.002   0.015   0.021
  18  1.867   0.192   0.278   0.088   0.383   0.230   0.335   0.062   0.245
              0.016   0.004   0.001   0.015   0.019
  20  1.917   0.184   0.284   0.077   0.418   0.233   0.349   0.073   0.245
              0.015   0.004   0.001   0.014   0.019
  21  1.881   0.185   0.282   0.154   0.388   0.153   0.294   0.066   0.302
              0.022   0.011   0.001   0.011   0.013
  22  2.012   0.237   0.261   0.223   0.396   0.225   0.258   0.086   0.255
              0.021   0.014   0.001   0.014   0.021
  23  1.991   0.238   0.259   0.227   0.379   0.225   0.252   0.080   0.255
              0.021   0.016   0.001   0.016   0.022
  24  2.012   0.233   0.263   0.225   0.394   0.224   0.256   0.086   0.256
              0.021   0.015   0.001   0.015   0.021
  25  1.993   0.235   0.261   0.226   0.381   0.225   0.255   0.081   0.254
              0.021   0.016   0.001   0.016   0.021
  26  2.008   0.233   0.263   0.226   0.389   0.224   0.256   0.086   0.258
              0.021   0.015   0.001   0.015   0.021
  27  1.992   0.237   0.260   0.221   0.381   0.224   0.258   0.082   0.256
              0.021   0.015   0.001   0.015   0.021
  28  1.978   0.231   0.263   0.215   0.381   0.206   0.256   0.088   0.268
              0.021   0.014   0.001   0.014   0.021
  29  1.862   0.193   0.278   0.071   0.374   0.248   0.351   0.054   0.238
              0.015   0.004   0.001   0.015   0.020
  31  2.019   0.245   0.257   0.221   0.417   0.233   0.251   0.083   0.241
              0.021   0.014   0.001   0.014   0.021
  32  2.015   0.237   0.261   0.228   0.400   0.228   0.254   0.084   0.251
              0.021   0.015   0.001   0.015   0.021
  33  1.993   0.245   0.256   0.236   0.388   0.228   0.244   0.075   0.248
              0.021   0.015   0.001   0.016   0.021
  34  2.007   0.234   0.262   0.227   0.390   0.225   0.255   0.086   0.256
              0.021   0.015   0.001   0.015   0.021
  35  1.989   0.239   0.258   0.225   0.381   0.227   0.253   0.078   0.252
              0.021   0.015   0.001   0.015   0.021
  36  1.977   0.225   0.265   0.209   0.378   0.211   0.261   0.092   0.265
              0.021   0.014   0.001   0.014   0.021
  37  1.864   0.192   0.278   0.074   0.372   0.246   0.351   0.056   0.239
              0.015   0.005   0.001   0.015   0.020
  39  2.009   0.246   0.257   0.236   0.402   0.232   0.246   0.076   0.244
              0.021   0.014   0.001   0.014   0.021
  40  1.996   0.234   0.262   0.218   0.393   0.224   0.256   0.085   0.252
              0.020   0.014   0.001   0.014   0.022
  41  1.954   0.245   0.253   0.222   0.368   0.229   0.248   0.071   0.244
              0.021   0.014   0.001   0.015   0.021
  43  1.908   0.188   0.282   0.149   0.407   0.163   0.300   0.072   0.295
              0.022   0.009   0.001   0.009   0.013

mulliken: Qtot =       76.000

                     ====================================
                        Begin CG opt. move =      2
                     ====================================

superc: Internal auxiliary supercell:     3 x     1 x     1  =       3
superc: Number of atoms, orbitals, and projectors:    132   1524   1944

outcell: Unit cell vectors (Ang):
        8.970000    0.000000    0.000000
        0.000000   50.000000    0.000000
        0.000000    0.000000   20.000000

outcell: Cell vector modules (Ang)   :    8.970000   50.000000   20.000000
outcell: Cell angles (23,13,12) (deg):     90.0000     90.0000     90.0000
outcell: Cell volume (Ang**3)        :   8970.0000
<dSpData1D:S at geom step 2
  <sparsity:sparsity for geom step 2
    nrows_g=508 nrows=25 sparsity=.0438 nnzs=11300, refcount: 7>
  <dData1D:(new from dSpData1D) n=11300, refcount: 1>
refcount: 1>
new_DM -- step:     3
Re-using DM from previous geometries...
Number of DMs in history: 1
 DM extrapolation coefficients: 
1   1.00000
New DM after history re-use:
<dSpData2D:SpM extrapolated using coords
  <sparsity:sparsity for geom step 2
    nrows_g=508 nrows=25 sparsity=.0438 nnzs=11300, refcount: 8>
  <dData2D:(temp array for extrapolation) n=11300 m=2, refcount: 1>
refcount: 1>
No. of atoms with KB's overlaping orbs in proc 0. Max # of overlaps:      34     217
New grid distribution:   1
           1       1:   54    1:   80    1:   21
           2       1:   54    1:   80   22:   42
           3       1:   54    1:   80   43:   63
           4       1:   54    1:   80   64:   84
           5       1:   54    1:   80   85:  105
           6       1:   54    1:   80  106:  125
           7       1:   54   81:  160    1:   21
           8       1:   54   81:  160   22:   42
           9       1:   54   81:  160   43:   63
          10       1:   54   81:  160   64:   84
          11       1:   54   81:  160   85:  105
          12       1:   54   81:  160  106:  125
          13       1:   54  161:  240    1:   21
          14       1:   54  161:  240   22:   42
          15       1:   54  161:  240   43:   63
          16       1:   54  161:  240   64:   84
          17       1:   54  161:  240   85:  105
          18       1:   54  161:  240  106:  125
          19       1:   54  241:  320    1:   21
          20       1:   54  241:  320   22:   42
          21       1:   54  241:  320   43:   63
          22       1:   54  241:  320   64:   84
          23       1:   54  241:  320   85:  105
          24       1:   54  241:  320  106:  125

InitMesh: MESH =   108 x   640 x   250 =    17280000
InitMesh: (bp) =    54 x   320 x   125 =     2160000
InitMesh: Mesh cutoff (required, used) =   400.000   400.649 Ry
ExtMesh (bp) on 0 =   118 x   148 x    89 =     1554296
New grid distribution:   2
           1       1:   54    1:   44    1:   63
           2       1:   54   45:   56    1:   58
           3       1:   54   73:   78    1:   63
           4       1:   54   45:   56   59:   63
           5       1:   54    1:   44   64:  125
           6       1:   54   45:   56   68:  125
           7       1:   54   90:   95    1:   63
           8       1:   54   45:   56   64:   67
           9       1:   54   79:   89    1:   59
          10       1:   54   96:  320   64:   67
          11       1:   54   73:   78   64:  125
          12       1:   54   62:   72   60:   63
          13       1:   54   96:  320    1:   58
          14       1:   54   62:   72    1:   59
          15       1:   54   57:   62   64:  125
          16       1:   54   79:   89   60:   63
          17       1:   54   96:  320   68:  125
          18       1:   54   79:   89   68:  125
          19       1:   54   90:   95   64:  125
          20       1:   54   79:   89   64:   67
          21       1:   54   96:  320   59:   63
          22       1:   54   63:   72   68:  125
          23       1:   54   57:   61    1:   63
          24       1:   54   63:   72   64:   67
New grid distribution:   3
           1       1:   54    1:   31    1:   63
           2       1:   54   57:   73    1:   55
           3       1:   54   49:   56    1:   63
           4       1:   54   32:   48   64:   71
           5       1:   54    1:   31   64:  125
           6       1:   54   57:   73   56:   63
           7       1:   54   82:   98    1:   55
           8       1:   54   99:  107    1:   63
           9       1:   54  108:  320   57:   63
          10       1:   54   32:   48    1:   55
          11       1:   54   74:   81    1:   63
          12       1:   54   32:   48   56:   63
          13       1:   54  108:  320    1:   56
          14       1:   54   57:   73   72:  125
          15       1:   54   74:   81   64:  125
          16       1:   54   82:   98   56:   63
          17       1:   54  107:  320   71:  125
          18       1:   54   82:   98   72:  125
          19       1:   54   49:   56   64:  125
          20       1:   54   82:   98   64:   71
          21       1:   54   32:   48   72:  125
          22       1:   54  107:  320   64:   70
          23       1:   54   99:  106   64:  125
          24       1:   54   57:   73   64:   71
Setting up quadratic distribution...
ExtMesh (bp) on 0 =   118 x   112 x   131 =     1731296
PhiOnMesh: Number of (b)points on node 0 =               149688
PhiOnMesh: nlist on node 0 =               469933

        iscf     Eharris(eV)        E_KS(eV)     FreeEng(eV)     dDmax    Ef(eV) dHmax(eV)
   scf:    1    -5691.123286    -5692.525268    -5692.525530  0.042051 -3.338101  2.297435
   scf:    2    -5668.511029    -5685.387228    -5685.387228  0.098193 -3.323662  9.538955
   scf:    3    -5694.181985    -5693.088867    -5693.089050  0.086983 -3.339103  0.603775
   scf:    4    -5693.102707    -5693.123320    -5693.123512  0.006806 -3.337637  0.444265
   scf:    5    -5693.120031    -5693.121695    -5693.121890  0.000256 -3.337592  0.466074
   scf:    6    -5693.125435    -5693.140110    -5693.140286  0.006592 -3.342741  0.210901
   scf:    7    -5693.142378    -5693.143602    -5693.143769  0.002871 -3.340501  0.063887
   scf:    8    -5693.143933    -5693.143783    -5693.143949  0.000313 -3.340533  0.045414
   scf:    9    -5693.143932    -5693.143920    -5693.144085  0.000634 -3.340705  0.016526
   scf:   10    -5693.143994    -5693.143957    -5693.144120  0.000414 -3.340377  0.008004
   scf:   11    -5693.143970    -5693.143964    -5693.144125  0.000102 -3.340373  0.007232
   scf:   12    -5693.143998    -5693.143979    -5693.144139  0.000297 -3.340440  0.005449
   scf:   13    -5693.144011    -5693.143993    -5693.144150  0.000344 -3.340487  0.003435
   scf:   14    -5693.144001    -5693.143997    -5693.144152  0.000108 -3.340488  0.002772
   scf:   15    -5693.144015    -5693.144005    -5693.144157  0.000249 -3.340458  0.001571
   scf:   16    -5693.144009    -5693.144007    -5693.144159  0.000072 -3.340439  0.001374
   scf:   17    -5693.144015    -5693.144011    -5693.144161  0.000126 -3.340404  0.001157
   scf:   18    -5693.144020    -5693.144015    -5693.144163  0.000125 -3.340370  0.000928
   scf:   19    -5693.144032    -5693.144022    -5693.144167  0.000256 -3.340304  0.000673
   scf:   20    -5693.144025    -5693.144023    -5693.144167  0.000072 -3.340292  0.000664
   scf:   21    -5693.144034    -5693.144027    -5693.144168  0.000178 -3.340256  0.000335
   scf:   22    -5693.144028    -5693.144028    -5693.144168  0.000017 -3.340249  0.000252
   scf:   23    -5693.144029    -5693.144028    -5693.144168  0.000020 -3.340244  0.000246
   scf:   24    -5693.144029    -5693.144029    -5693.144168  0.000037 -3.340236  0.000131
   scf:   25    -5693.144029    -5693.144029    -5693.144168  0.000009 -3.340235  0.000081

SCF Convergence by DM+H criterion
max |DM_out - DM_in|         :     0.0000090246
max |H_out - H_in|      (eV) :     0.0000809543
SCF cycle converged after 25 iterations

Using DM_out to compute the final energy and forces
No. of atoms with KB's overlaping orbs in proc 0. Max # of overlaps:      34     217

siesta: E_KS(eV) =            -5693.1440

siesta: Total spin polarization (Qup-Qdown) =   -0.000256

siesta: Atomic forces (eV/Ang):
----------------------------------------
   Tot    0.002755    0.026793   -0.000000
----------------------------------------
   Max   10.749450
   Res    1.560539    sqrt( Sum f_i^2 / 3N )
----------------------------------------
   Max   10.749450    constrained

Stress-tensor-Voigt (kbar):       -3.14       -4.79        0.00       -0.61        0.00       -0.00
(Free)E + p*V (eV/cell)    -5678.3408
Target enthalpy (eV/cell)    -5693.1442
 
mulliken: Atomic and Orbital Populations:

mulliken: Spin UP 

Species: H.mpn               
Atom  Qatom  Qorb
               1s      1s      1Ppy    1Ppz    1Ppx    
   1  0.621   0.415   0.156   0.022   0.016   0.012
   3  0.622   0.425   0.148   0.022   0.017   0.011
   9  0.622   0.428   0.144   0.021   0.017   0.012
  19  0.607   0.438   0.123   0.016   0.013   0.017
  30  0.621   0.418   0.150   0.017   0.018   0.018
  38  0.617   0.435   0.132   0.021   0.016   0.012
  42  0.622   0.422   0.146   0.022   0.020   0.011
  44  0.620   0.411   0.155   0.022   0.020   0.012

Species: C.mpn               
Atom  Qatom  Qorb
               2s      2s      2py     2pz     2px     2py     2pz     2px     
               2Pdxy   2Pdyz   2Pdz2   2Pdxz   2Pdx2-y2
   2  1.999   0.236   0.261   0.224   0.397   0.223   0.246   0.083   0.258
              0.021   0.013   0.001   0.014   0.021
   4  1.848   0.197   0.276   0.074   0.371   0.251   0.350   0.046   0.229
              0.014   0.004   0.001   0.015   0.020
   5  1.980   0.229   0.264   0.209   0.382   0.216   0.260   0.089   0.259
              0.021   0.015   0.001   0.013   0.021
   6  1.991   0.241   0.257   0.229   0.381   0.228   0.251   0.079   0.251
              0.020   0.015   0.001   0.015   0.022
   7  2.008   0.243   0.259   0.234   0.398   0.230   0.249   0.079   0.246
              0.021   0.014   0.001   0.014   0.021
   8  2.016   0.237   0.261   0.232   0.399   0.225   0.246   0.085   0.258
              0.021   0.014   0.001   0.016   0.021
  10  1.857   0.191   0.279   0.066   0.373   0.250   0.356   0.052   0.235
              0.015   0.004   0.001   0.015   0.020
  11  1.978   0.229   0.263   0.207   0.380   0.210   0.261   0.090   0.265
              0.021   0.014   0.001   0.014   0.021
  12  1.991   0.237   0.259   0.221   0.381   0.225   0.258   0.082   0.254
              0.021   0.015   0.001   0.015   0.021
  13  2.008   0.233   0.263   0.225   0.389   0.224   0.256   0.087   0.257
              0.021   0.015   0.001   0.015   0.021
  14  1.993   0.243   0.257   0.235   0.386   0.227   0.247   0.075   0.249
              0.021   0.015   0.001   0.016   0.021
  15  2.014   0.233   0.263   0.226   0.396   0.225   0.257   0.087   0.254
              0.021   0.015   0.001   0.015   0.021
  16  1.991   0.242   0.258   0.228   0.380   0.227   0.251   0.078   0.252
              0.020   0.016   0.001   0.016   0.023
  17  2.019   0.247   0.257   0.230   0.408   0.230   0.252   0.080   0.245
              0.021   0.013   0.001   0.014   0.021
  18  1.915   0.180   0.282   0.092   0.390   0.218   0.333   0.094   0.270
              0.018   0.004   0.000   0.016   0.018
  20  1.865   0.185   0.281   0.072   0.384   0.237   0.353   0.060   0.238
              0.015   0.004   0.001   0.015   0.019
  21  1.906   0.189   0.283   0.156   0.416   0.157   0.293   0.063   0.298
              0.022   0.008   0.001   0.009   0.012
  22  1.987   0.238   0.259   0.223   0.378   0.226   0.256   0.081   0.253
              0.021   0.015   0.002   0.015   0.021
  23  2.010   0.242   0.259   0.234   0.397   0.225   0.248   0.080   0.253
              0.021   0.014   0.001   0.014   0.021
  24  1.990   0.235   0.261   0.226   0.378   0.225   0.255   0.081   0.255
              0.021   0.016   0.001   0.016   0.021
  25  2.011   0.234   0.263   0.225   0.395   0.227   0.256   0.085   0.254
              0.021   0.015   0.001   0.015   0.021
  26  1.990   0.235   0.261   0.226   0.377   0.225   0.255   0.082   0.255
              0.021   0.016   0.001   0.016   0.021
  27  2.007   0.236   0.261   0.221   0.392   0.225   0.258   0.086   0.256
              0.021   0.014   0.001   0.014   0.021
  28  1.956   0.243   0.255   0.225   0.373   0.206   0.245   0.076   0.258
              0.021   0.014   0.001   0.018   0.020
  29  1.958   0.189   0.285   0.069   0.450   0.252   0.356   0.069   0.235
              0.014   0.004   0.000   0.014   0.020
  31  1.954   0.238   0.256   0.219   0.364   0.225   0.248   0.075   0.255
              0.022   0.014   0.001   0.017   0.020
  32  1.986   0.245   0.256   0.232   0.384   0.231   0.249   0.073   0.243
              0.021   0.015   0.001   0.015   0.021
  33  2.009   0.238   0.260   0.231   0.394   0.227   0.251   0.083   0.251
              0.020   0.015   0.001   0.014   0.022
  34  1.991   0.235   0.261   0.228   0.379   0.225   0.254   0.082   0.253
              0.021   0.016   0.001   0.016   0.021
  35  2.015   0.243   0.258   0.231   0.405   0.228   0.249   0.080   0.249
              0.021   0.014   0.001   0.014   0.021
  36  1.958   0.230   0.260   0.209   0.362   0.215   0.258   0.086   0.258
              0.021   0.015   0.001   0.019   0.021
  37  1.963   0.189   0.285   0.071   0.450   0.251   0.357   0.071   0.235
              0.015   0.004   0.000   0.014   0.020
  39  1.993   0.238   0.259   0.232   0.383   0.224   0.244   0.080   0.258
              0.021   0.015   0.001   0.017   0.021
  40  1.974   0.244   0.255   0.222   0.380   0.231   0.250   0.075   0.240
              0.020   0.016   0.001   0.017   0.021
  41  2.020   0.237   0.260   0.222   0.410   0.225   0.254   0.090   0.250
              0.020   0.014   0.001   0.015   0.022
  43  1.896   0.196   0.274   0.163   0.369   0.166   0.280   0.091   0.298
              0.022   0.011   0.000   0.013   0.014

mulliken: Qtot =       76.000

mulliken: Spin DOWN 

Species: H.mpn               
Atom  Qatom  Qorb
               1s      1s      1Ppy    1Ppz    1Ppx    
   1  0.620   0.410   0.155   0.022   0.020   0.012
   3  0.621   0.421   0.147   0.022   0.020   0.011
   9  0.622   0.426   0.143   0.021   0.019   0.012
  19  0.606   0.437   0.123   0.016   0.013   0.017
  30  0.621   0.419   0.150   0.017   0.017   0.018
  38  0.618   0.436   0.133   0.022   0.015   0.012
  42  0.623   0.426   0.147   0.022   0.017   0.011
  44  0.622   0.415   0.155   0.023   0.016   0.012

Species: C.mpn               
Atom  Qatom  Qorb
               2s      2s      2py     2pz     2px     2py     2pz     2px     
               2Pdxy   2Pdyz   2Pdz2   2Pdxz   2Pdx2-y2
   2  1.971   0.239   0.257   0.225   0.375   0.224   0.243   0.077   0.255
              0.021   0.015   0.001   0.019   0.021
   4  1.973   0.195   0.283   0.077   0.465   0.252   0.350   0.066   0.231
              0.014   0.004   0.001   0.014   0.020
   5  1.958   0.232   0.259   0.210   0.363   0.217   0.258   0.084   0.255
              0.021   0.016   0.001   0.020   0.021
   6  2.012   0.240   0.259   0.229   0.397   0.228   0.252   0.084   0.251
              0.020   0.014   0.001   0.015   0.022
   7  1.991   0.244   0.257   0.234   0.385   0.230   0.248   0.075   0.245
              0.021   0.015   0.001   0.015   0.021
   8  1.985   0.239   0.258   0.232   0.377   0.225   0.245   0.078   0.257
              0.021   0.014   0.001   0.016   0.021
  10  1.960   0.189   0.285   0.068   0.449   0.251   0.357   0.071   0.237
              0.015   0.004   0.000   0.014   0.019
  11  1.957   0.231   0.260   0.208   0.363   0.212   0.259   0.085   0.262
              0.021   0.015   0.001   0.019   0.021
  12  2.009   0.236   0.261   0.221   0.394   0.225   0.259   0.086   0.255
              0.021   0.014   0.001   0.015   0.021
  13  1.991   0.234   0.261   0.225   0.376   0.224   0.255   0.083   0.256
              0.021   0.016   0.001   0.016   0.021
  14  2.010   0.242   0.259   0.235   0.399   0.226   0.248   0.079   0.250
              0.021   0.014   0.001   0.014   0.021
  15  1.987   0.235   0.260   0.226   0.377   0.225   0.256   0.080   0.253
              0.021   0.016   0.001   0.016   0.021
  16  2.008   0.240   0.260   0.228   0.393   0.226   0.252   0.082   0.254
              0.020   0.014   0.001   0.014   0.023
  17  1.986   0.249   0.254   0.230   0.384   0.230   0.251   0.073   0.244
              0.021   0.014   0.002   0.014   0.021
  18  1.884   0.181   0.280   0.092   0.367   0.217   0.332   0.087   0.269
              0.018   0.004   0.000   0.017   0.018
  20  1.916   0.183   0.285   0.073   0.423   0.238   0.354   0.069   0.239
              0.015   0.004   0.001   0.014   0.019
  21  1.877   0.190   0.280   0.156   0.393   0.156   0.292   0.059   0.297
              0.022   0.010   0.001   0.010   0.012
  22  2.014   0.236   0.261   0.223   0.398   0.226   0.257   0.087   0.254
              0.021   0.014   0.001   0.014   0.021
  23  1.991   0.244   0.256   0.234   0.382   0.226   0.247   0.076   0.252
              0.021   0.016   0.001   0.016   0.021
  24  2.010   0.234   0.263   0.226   0.393   0.225   0.256   0.086   0.256
              0.021   0.015   0.001   0.015   0.021
  25  1.990   0.235   0.260   0.225   0.379   0.227   0.255   0.080   0.253
              0.021   0.016   0.001   0.016   0.021
  26  2.009   0.233   0.263   0.226   0.390   0.225   0.256   0.086   0.256
              0.021   0.015   0.001   0.015   0.021
  27  1.993   0.237   0.260   0.221   0.381   0.225   0.258   0.083   0.255
              0.021   0.015   0.001   0.015   0.021
[...]
         18.41  18.44  18.70  18.72  18.90  19.10  19.12  19.23  19.28  19.43
         19.47  19.67  19.69  19.76  19.89  20.21  20.29  20.41  20.49  20.52
         20.55  20.58  21.13  21.21  21.22  21.29  21.33  21.38  21.49  21.63
         21.67  21.67  21.71  22.04  22.22  22.26  22.26  22.41  22.44  22.54
         22.57  22.67  22.72  22.83  22.93  23.25  23.28  23.45  23.55  23.84
         23.85  24.00  24.07  24.18  24.38  24.40  24.49  24.53  24.77  25.40
         25.63  25.82  25.95  26.17  26.35  26.47  26.55  26.85  27.18  27.82
         28.02  28.72  28.89  29.29  29.92  30.39  31.17  31.25  32.09  32.18
         32.20  32.38  32.61  32.80  33.00  33.32  33.42  33.63  33.84  33.97
         34.39  34.94  35.45  35.66  35.70  35.81  36.12  36.15  36.17  36.36
         36.50  36.71  36.95  37.12  37.71  37.78  37.87  38.24  38.38  39.01
         39.70  39.87  40.30  40.56  40.61  40.77  41.53  41.60  42.53  43.09
         43.54  43.57  43.98  44.11  44.56  44.61  45.07  45.11  45.25  46.03
         46.04  46.40  47.10  47.27  47.29  47.38  47.64  47.68  47.87  48.01
         48.66  48.72  49.52  49.72  49.86  49.95  50.18  50.40  50.58  50.65
         51.33  51.35  51.35  51.48  52.28  52.45  52.77  52.85  53.13  53.30
         53.78  54.10  54.58  54.74  54.74  54.84  55.05  55.33  55.42  55.55
         56.04  56.66  56.95  57.41  57.42  57.60  57.63  57.75  58.40  58.52
         58.53  58.78  59.07  59.19  59.29  59.31  60.07  60.40  60.66  60.85
         61.01  61.06  61.42  61.53  61.86  62.27  62.27  62.37  62.51  63.47
         63.49  63.72  64.66  64.77  65.03  65.24  65.92  66.99  68.00  68.08
         69.13  70.50  70.52  72.20  72.59  72.70  73.16  73.27  73.74  74.13
         74.71  74.99  75.04  75.15  75.37  75.60  75.74  76.07  76.48  76.72
         77.60  77.82  77.96  78.13  78.75  79.20  79.80  80.05  81.16  81.34
         81.52  81.81  82.33  82.64  82.73  82.82  82.98  83.53  84.03  84.22
         84.98  86.21  86.59  87.63  89.61  90.30  90.66  91.83  92.20  94.37
         95.87  96.40  96.56  98.49  98.99  99.76 100.70 102.50 104.84 105.54
        106.34 107.31 108.48 109.30 111.42 113.24 114.27 115.65 119.91 120.37
        122.12 122.53 123.95 125.91 128.12 130.39 133.33 133.42 136.35 137.94
        139.84 141.26 143.29 144.32 146.42 148.33 149.28 153.09 161.70 162.99
        165.44 166.77 170.37 170.98 175.97 178.07 178.45 180.40
  50  2 -21.93 -21.87 -21.40 -21.25 -20.54 -20.32 -19.40 -19.37 -19.27 -19.12
        -18.81 -18.66 -18.09 -18.01 -17.86 -17.64 -16.84 -16.78 -15.74 -15.53
        -15.01 -14.85 -14.57 -14.26 -14.07 -13.91 -13.53 -13.25 -13.16 -12.95
        -12.92 -12.70 -12.07 -11.84 -11.69 -11.48 -10.79 -10.62 -10.52 -10.49
        -10.12 -10.00  -9.94  -9.84  -9.74  -9.70  -9.50  -9.44  -9.41  -9.39
         -9.29  -9.25  -9.06  -8.79  -8.50  -8.45  -8.21  -8.21  -8.14  -8.05
         -7.66  -7.53  -7.25  -7.19  -7.13  -7.08  -6.99  -6.87  -6.48  -6.40
         -6.07  -5.78  -5.49  -5.46  -4.50  -4.41  -2.15  -2.09  -1.23  -1.16
         -0.82  -0.76  -0.06   0.03   0.61   0.75   0.86   0.93   2.48   2.52
          2.70   2.87   3.02   3.06   4.00   4.13   4.29   4.62   4.65   4.68
          4.78   4.86   5.14   5.22   5.28   5.48   5.64   5.89   6.18   6.27
          6.33   6.38   6.54   6.57   6.73   7.06   7.07   7.46   8.13   8.25
          8.48   8.78   8.99   9.12   9.23   9.35   9.41   9.48   9.68   9.71
          9.75   9.94   9.98  10.12  10.15  10.28  10.46  10.74  10.84  10.88
         10.93  11.14  11.16  11.25  11.40  11.51  11.52  11.72  11.86  11.90
         11.94  12.00  12.21  12.31  12.38  12.55  12.60  12.65  12.83  12.91
         13.00  13.05  13.08  13.20  13.30  13.36  13.38  13.40  13.41  13.49
         13.52  13.55  13.64  13.71  13.72  13.99  14.03  14.05  14.12  14.42
         14.47  14.49  14.78  14.80  14.91  14.96  15.07  15.11  15.32  15.73
         16.38  16.49  16.55  16.57  16.61  16.71  17.89  18.02  18.09  18.38
         18.41  18.44  18.70  18.72  18.90  19.10  19.12  19.23  19.28  19.43
         19.47  19.67  19.69  19.76  19.89  20.21  20.29  20.41  20.49  20.52
         20.55  20.58  21.13  21.21  21.22  21.29  21.33  21.38  21.49  21.63
         21.67  21.67  21.71  22.04  22.22  22.26  22.26  22.41  22.44  22.54
         22.57  22.67  22.72  22.83  22.93  23.25  23.28  23.45  23.55  23.84
         23.85  24.00  24.07  24.18  24.38  24.40  24.49  24.53  24.77  25.40
         25.63  25.82  25.95  26.17  26.35  26.47  26.55  26.85  27.18  27.82
         28.02  28.72  28.89  29.29  29.92  30.39  31.17  31.25  32.09  32.18
         32.20  32.38  32.61  32.80  33.01  33.32  33.42  33.63  33.84  33.97
         34.39  34.94  35.45  35.66  35.70  35.81  36.12  36.15  36.17  36.36
         36.50  36.71  36.95  37.12  37.71  37.78  37.87  38.24  38.38  39.01
         39.70  39.87  40.30  40.56  40.61  40.77  41.53  41.60  42.53  43.09
         43.54  43.57  43.98  44.11  44.56  44.61  45.07  45.11  45.25  46.03
         46.04  46.40  47.10  47.27  47.29  47.38  47.64  47.68  47.87  48.01
         48.66  48.72  49.52  49.72  49.86  49.95  50.18  50.40  50.58  50.65
         51.33  51.35  51.35  51.48  52.28  52.45  52.77  52.85  53.13  53.30
         53.78  54.10  54.58  54.74  54.74  54.84  55.05  55.33  55.42  55.55
         56.04  56.66  56.95  57.41  57.42  57.60  57.63  57.75  58.40  58.52
         58.53  58.78  59.07  59.19  59.29  59.31  60.07  60.40  60.66  60.85
         61.01  61.06  61.42  61.53  61.86  62.27  62.27  62.37  62.51  63.46
         63.49  63.72  64.66  64.77  65.03  65.24  65.92  66.99  68.00  68.08
         69.13  70.50  70.52  72.20  72.59  72.70  73.16  73.27  73.74  74.13
         74.71  74.99  75.04  75.15  75.37  75.60  75.74  76.07  76.48  76.72
         77.60  77.82  77.96  78.13  78.75  79.20  79.80  80.05  81.16  81.34
         81.52  81.81  82.33  82.64  82.73  82.82  82.98  83.53  84.03  84.22
         84.98  86.21  86.59  87.63  89.61  90.30  90.66  91.83  92.20  94.37
         95.87  96.40  96.56  98.49  98.99  99.76 100.70 102.50 104.84 105.54
        106.34 107.31 108.48 109.30 111.42 113.24 114.27 115.65 119.91 120.37
        122.12 122.53 123.95 125.91 128.12 130.39 133.33 133.42 136.35 137.94
        139.84 141.26 143.29 144.32 146.42 148.33 149.28 153.09 161.70 162.99
        165.44 166.77 170.37 170.98 175.97 178.07 178.45 180.40
  51  1 -21.93 -21.87 -21.40 -21.25 -20.54 -20.32 -19.39 -19.36 -19.28 -19.12
        -18.80 -18.67 -18.09 -18.00 -17.86 -17.64 -16.83 -16.79 -15.74 -15.53
        -15.01 -14.85 -14.57 -14.26 -14.06 -13.92 -13.53 -13.23 -13.18 -12.94
        -12.93 -12.70 -12.07 -11.84 -11.69 -11.48 -10.79 -10.62 -10.52 -10.50
        -10.12 -10.00  -9.94  -9.84  -9.73  -9.71  -9.50  -9.44  -9.41  -9.39
         -9.29  -9.25  -9.06  -8.79  -8.50  -8.45  -8.21  -8.20  -8.14  -8.05
         -7.65  -7.53  -7.25  -7.18  -7.14  -7.06  -7.01  -6.87  -6.44  -6.44
         -6.07  -5.78  -5.49  -5.47  -4.48  -4.42  -2.14  -2.11  -1.22  -1.16
         -0.81  -0.77  -0.02  -0.01   0.62   0.74   0.88   0.90   2.48   2.52
          2.70   2.87   3.02   3.06   4.00   4.13   4.29   4.63   4.64   4.68
          4.78   4.85   5.14   5.23   5.26   5.48   5.64   5.89   6.18   6.28
          6.33   6.37   6.55   6.56   6.73   7.06   7.07   7.46   8.14   8.25
          8.48   8.78   8.99   9.16   9.18   9.35   9.41   9.48   9.68   9.71
          9.75   9.94   9.98  10.13  10.15  10.27  10.47  10.74  10.84  10.88
         10.93  11.14  11.18  11.23  11.40  11.51  11.52  11.72  11.87  11.90
         11.93  12.00  12.21  12.31  12.38  12.56  12.61  12.63  12.85  12.89
         13.00  13.05  13.08  13.20  13.30  13.36  13.38  13.40  13.41  13.49
         13.52  13.55  13.64  13.71  13.72  13.99  14.03  14.06  14.11  14.42
         14.47  14.49  14.78  14.80  14.90  14.95  15.07  15.11  15.32  15.73
         16.38  16.49  16.57  16.57  16.61  16.69  17.90  18.02  18.08  18.38
         18.41  18.44  18.70  18.72  18.90  19.10  19.12  19.24  19.28  19.43
         19.47  19.67  19.69  19.76  19.89  20.21  20.30  20.41  20.49  20.52
         20.55  20.58  21.13  21.21  21.22  21.29  21.35  21.36  21.49  21.63
         21.67  21.67  21.70  22.04  22.22  22.26  22.26  22.41  22.44  22.54
         22.57  22.68  22.71  22.83  22.93  23.25  23.27  23.45  23.55  23.84
         23.85  24.01  24.07  24.18  24.38  24.40  24.49  24.53  24.77  25.40
         25.65  25.80  25.96  26.17  26.35  26.47  26.55  26.84  27.18  27.82
         28.02  28.73  28.89  29.29  29.92  30.38  31.17  31.24  32.09  32.18
         32.20  32.38  32.61  32.80  33.00  33.32  33.41  33.64  33.84  33.96
         34.39  34.94  35.45  35.66  35.70  35.81  36.15  36.15  36.16  36.36
         36.50  36.72  36.94  37.12  37.71  37.78  37.86  38.24  38.38  39.01
         39.70  39.86  40.30  40.56  40.60  40.77  41.53  41.60  42.53  43.09
         43.54  43.57  43.98  44.11  44.57  44.60  45.07  45.11  45.25  46.02
         46.04  46.40  47.14  47.26  47.28  47.37  47.65  47.68  47.86  48.00
         48.66  48.72  49.52  49.72  49.86  49.95  50.17  50.40  50.58  50.64
         51.33  51.34  51.35  51.48  52.28  52.45  52.79  52.83  53.13  53.30
         53.78  54.10  54.63  54.69  54.75  54.86  55.03  55.34  55.41  55.54
         56.04  56.66  56.95  57.41  57.42  57.63  57.64  57.74  58.41  58.52
         58.58  58.67  59.07  59.21  59.29  59.29  60.08  60.40  60.65  60.85
         61.02  61.05  61.42  61.54  61.86  62.26  62.29  62.35  62.50  63.47
         63.51  63.70  64.67  64.77  65.03  65.24  65.91  66.99  68.00  68.08
         69.13  70.50  70.52  72.20  72.62  72.70  73.14  73.27  73.74  74.13
         74.71  75.00  75.04  75.15  75.38  75.60  75.73  76.06  76.51  76.69
         77.62  77.80  77.97  78.13  78.75  79.20  79.81  80.04  81.17  81.37
         81.50  81.80  82.34  82.68  82.70  82.81  82.98  83.53  84.06  84.19
         84.97  86.21  86.60  87.62  89.74  90.19  90.63  91.90  92.12  94.37
         95.87  96.40  96.56  98.50  99.00  99.76 100.70 102.48 104.84 105.53
        106.34 107.31 108.49 109.30 111.43 113.28 114.24 115.64 119.93 120.37
        122.33 122.35 123.96 125.89 128.13 130.39 133.35 133.37 136.45 137.85
        139.85 141.25 143.27 144.32 146.70 148.31 149.07 153.07 161.71 162.99
        165.43 166.76 170.47 170.86 175.97 178.22 178.30 180.40
  51  2 -21.93 -21.87 -21.40 -21.25 -20.54 -20.32 -19.39 -19.36 -19.28 -19.12
        -18.80 -18.67 -18.09 -18.00 -17.86 -17.64 -16.83 -16.79 -15.74 -15.53
        -15.01 -14.85 -14.57 -14.26 -14.06 -13.92 -13.53 -13.23 -13.18 -12.94
        -12.93 -12.70 -12.07 -11.84 -11.69 -11.48 -10.79 -10.62 -10.52 -10.50
        -10.12 -10.00  -9.94  -9.84  -9.73  -9.71  -9.50  -9.44  -9.41  -9.39
         -9.29  -9.25  -9.06  -8.79  -8.50  -8.45  -8.21  -8.20  -8.14  -8.05
         -7.65  -7.53  -7.25  -7.18  -7.14  -7.06  -7.01  -6.87  -6.44  -6.44
         -6.07  -5.78  -5.49  -5.47  -4.48  -4.42  -2.14  -2.11  -1.22  -1.16
         -0.81  -0.77  -0.02  -0.01   0.62   0.74   0.88   0.90   2.48   2.52
          2.70   2.87   3.02   3.06   4.00   4.13   4.29   4.63   4.64   4.68
          4.78   4.85   5.14   5.23   5.26   5.48   5.64   5.89   6.18   6.28
          6.33   6.37   6.55   6.56   6.73   7.06   7.07   7.46   8.14   8.25
          8.48   8.78   8.99   9.16   9.18   9.35   9.41   9.48   9.68   9.71
          9.75   9.94   9.98  10.13  10.15  10.27  10.47  10.74  10.84  10.88
         10.93  11.14  11.18  11.23  11.40  11.51  11.52  11.72  11.87  11.90
         11.93  12.00  12.21  12.31  12.38  12.56  12.61  12.63  12.85  12.89
         13.00  13.05  13.08  13.20  13.30  13.36  13.38  13.40  13.41  13.49
         13.52  13.55  13.64  13.71  13.72  13.99  14.03  14.06  14.11  14.42
         14.47  14.49  14.78  14.80  14.90  14.95  15.07  15.11  15.32  15.73
         16.38  16.49  16.57  16.57  16.61  16.69  17.90  18.02  18.08  18.38
         18.41  18.44  18.70  18.72  18.90  19.10  19.12  19.24  19.28  19.43
         19.47  19.67  19.69  19.76  19.89  20.21  20.30  20.41  20.49  20.52
         20.55  20.58  21.13  21.21  21.22  21.29  21.35  21.36  21.49  21.63
         21.67  21.67  21.70  22.04  22.22  22.26  22.26  22.41  22.44  22.54
         22.57  22.68  22.71  22.83  22.93  23.25  23.27  23.45  23.55  23.84
         23.85  24.01  24.07  24.18  24.38  24.40  24.49  24.53  24.77  25.40
         25.65  25.80  25.96  26.17  26.35  26.47  26.55  26.84  27.18  27.82
         28.02  28.73  28.89  29.29  29.92  30.38  31.17  31.24  32.09  32.18
         32.20  32.38  32.61  32.80  33.00  33.32  33.41  33.64  33.84  33.96
         34.39  34.94  35.45  35.66  35.70  35.81  36.15  36.15  36.16  36.36
         36.50  36.72  36.94  37.12  37.71  37.78  37.86  38.24  38.38  39.01
         39.71  39.86  40.30  40.56  40.60  40.77  41.53  41.60  42.53  43.09
         43.54  43.57  43.98  44.11  44.57  44.60  45.07  45.11  45.25  46.02
         46.04  46.40  47.14  47.26  47.28  47.37  47.65  47.68  47.86  48.00
         48.66  48.72  49.52  49.72  49.86  49.95  50.17  50.40  50.58  50.64
         51.33  51.34  51.35  51.48  52.28  52.45  52.79  52.83  53.13  53.30
         53.78  54.10  54.63  54.69  54.75  54.86  55.03  55.34  55.41  55.54
         56.04  56.66  56.95  57.41  57.42  57.63  57.64  57.74  58.41  58.52
         58.58  58.67  59.07  59.21  59.29  59.29  60.08  60.40  60.65  60.85
         61.02  61.05  61.42  61.54  61.86  62.26  62.29  62.35  62.50  63.47
         63.51  63.70  64.67  64.77  65.03  65.24  65.91  66.99  68.00  68.08
         69.13  70.50  70.52  72.20  72.62  72.70  73.14  73.27  73.74  74.13
         74.71  75.00  75.04  75.15  75.38  75.60  75.73  76.06  76.51  76.69
         77.62  77.80  77.97  78.13  78.75  79.20  79.81  80.04  81.17  81.37
         81.50  81.80  82.34  82.68  82.70  82.81  82.98  83.53  84.06  84.19
         84.97  86.21  86.60  87.62  89.74  90.19  90.63  91.90  92.12  94.37
         95.87  96.40  96.56  98.50  99.00  99.76 100.70 102.48 104.84 105.53
        106.34 107.31 108.49 109.30 111.43 113.28 114.24 115.64 119.93 120.37
        122.33 122.35 123.96 125.89 128.13 130.39 133.35 133.37 136.45 137.85
        139.85 141.25 143.27 144.32 146.70 148.31 149.07 153.07 161.71 162.99
        165.43 166.76 170.47 170.86 175.97 178.22 178.30 180.40
siesta: Fermi energy =      -3.336041 eV

siesta: Program's energy decomposition (eV):
siesta: Ebs     =     -1835.618251
siesta: Eions   =      7413.521051
siesta: Ena     =       743.924245
siesta: Ekin    =      4138.062926
siesta: Enl     =     -1298.482343
siesta: Eso     =         0.000000
siesta: Eldau   =         0.000000
siesta: DEna    =       -88.086514
siesta: DUscf   =         9.224932
siesta: DUext   =         0.000000
siesta: Enegf   =         0.000000
siesta: Exc     =     -1785.732175
siesta: eta*DQ  =         0.000000
siesta: Emadel  =         0.000000
siesta: Emeta   =         0.000000
siesta: Emolmec =         0.000000
siesta: Ekinion =         0.000000
siesta: Eharris =     -5694.609979
siesta: Etot    =     -5694.609979
siesta: FreeEng =     -5694.610181

siesta: Final energy (eV):
siesta:  Band Struct. =   -1835.618251
siesta:       Kinetic =    4138.062926
siesta:       Hartree =   50943.756179
siesta:       Eldau   =       0.000000
siesta:       Eso     =       0.000000
siesta:    Ext. field =       0.000000
siesta:       Enegf   =       0.000000
siesta:   Exch.-corr. =   -1785.732175
siesta:  Ion-electron = -105537.832086
siesta:       Ion-ion =   46547.135177
siesta:       Ekinion =       0.000000
siesta:         Total =   -5694.609979
siesta:         Fermi =      -3.336041

siesta: Stress tensor (static) (eV/Ang**3):
siesta:    -0.000575   -0.000015   -0.000000
siesta:    -0.000015    0.000015    0.000000
siesta:    -0.000000    0.000000    0.000003

siesta: Cell volume =       8970.000000 Ang**3

siesta: Pressure (static):
siesta:                Solid            Molecule  Units
siesta:           0.00000202          0.00000202  Ry/Bohr**3
siesta:           0.00018555          0.00018564  eV/Ang**3
siesta:           0.29728025          0.29743884  kBar
(Free)E+ p_basis*V_orbitals  =       -5682.418725
(Free)Eharris+ p_basis*V_orbitals  =       -5682.418725

siesta: Total spin polarization (Qup-Qdown) =    0.000000

siesta: Electric dipole (a.u.)  =   -0.000000   -0.000004   -0.000000
siesta: Electric dipole (Debye) =   -0.000000   -0.000010   -0.000000

Hirshfeld Net Atomic Populations:
Atom #    Qatom  Species
     1    0.020  H.mpn               
     2    0.004  C.mpn               
     3    0.022  H.mpn               
     4   -0.032  C.mpn               
     5    0.006  C.mpn               
     6    0.000  C.mpn               
     7    0.001  C.mpn               
     8   -0.001  C.mpn               
     9    0.026  H.mpn               
    10   -0.030  C.mpn               
    11    0.007  C.mpn               
    12    0.001  C.mpn               
    13    0.000  C.mpn               
    14   -0.000  C.mpn               
    15   -0.000  C.mpn               
    16    0.000  C.mpn               
    17    0.002  C.mpn               
    18   -0.026  C.mpn               
    19    0.024  H.mpn               
    20   -0.026  C.mpn               
    21   -0.028  C.mpn               
    22    0.002  C.mpn               
    23    0.000  C.mpn               
    24   -0.000  C.mpn               
    25   -0.000  C.mpn               
    26    0.000  C.mpn               
    27    0.001  C.mpn               
    28    0.007  C.mpn               
    29   -0.030  C.mpn               
    30    0.024  H.mpn               
    31    0.005  C.mpn               
    32   -0.001  C.mpn               
    33   -0.001  C.mpn               
    34    0.001  C.mpn               
    35    0.000  C.mpn               
    36    0.006  C.mpn               
    37   -0.032  C.mpn               
    38    0.026  H.mpn               
    39   -0.001  C.mpn               
    40    0.004  C.mpn               
    41    0.005  C.mpn               
    42    0.022  H.mpn               
    43   -0.028  C.mpn               
    44    0.020  H.mpn               

Voronoi Net Atomic Populations:
Atom #    Qatom  Species
     1   -0.001  H.mpn               
     2    0.002  C.mpn               
     3   -0.001  H.mpn               
     4   -0.008  C.mpn               
     5    0.005  C.mpn               
     6   -0.000  C.mpn               
     7    0.001  C.mpn               
     8   -0.003  C.mpn               
     9    0.002  H.mpn               
    10   -0.009  C.mpn               
    11    0.008  C.mpn               
    12    0.002  C.mpn               
    13    0.001  C.mpn               
    14    0.001  C.mpn               
    15   -0.002  C.mpn               
    16    0.004  C.mpn               
    17    0.000  C.mpn               
    18   -0.002  C.mpn               
    19    0.000  H.mpn               
    20   -0.002  C.mpn               
    21   -0.005  C.mpn               
    22    0.001  C.mpn               
    23    0.003  C.mpn               
    24    0.001  C.mpn               
    25    0.001  C.mpn               
    26    0.003  C.mpn               
    27    0.002  C.mpn               
    28    0.007  C.mpn               
    29   -0.007  C.mpn               
    30    0.002  H.mpn               
    31   -0.002  C.mpn               
    32   -0.002  C.mpn               
    33   -0.001  C.mpn               
    34   -0.001  C.mpn               
    35    0.000  C.mpn               
    36    0.004  C.mpn               
    37   -0.007  C.mpn               
    38    0.002  H.mpn               
    39   -0.001  C.mpn               
    40    0.004  C.mpn               
    41   -0.001  C.mpn               
    42   -0.001  H.mpn               
    43   -0.003  C.mpn               
    44   -0.000  H.mpn               
>> End of run:  17-APR-2018  22:32:02
Job completed
Job completed
